# vtk DataFile Version 3.0
vtk output
ASCII
DATASET POLYDATA
POINTS 332 float
-7916.56 3464.89 1247.79 -7963.88 3311.57 1194.6 -8180.81 2609.35 950.94 
-8187.31 2567.64 932.052 -8163.55 2462 891.84 -8156.12 2409.32 870.948 
-8111.9 2243.67 809.212 -8041.35 1897.45 676.036 -8003.66 1772.13 630.136 
-7984.62 1618.38 590.052 -7930.71 1193.52 479.56 -7923.09 1110.44 457.372 
-8156.44 565.33 479.576 -8427.36 -61.6571 503.596 -8491.47 -226.786 514.288 
-8532.67 -315.607 515.992 -8524.88 -385.106 494.348 -8436.07 -753.72 447.092 
-8278.37 -1627.04 260.218 -8204.04 -1995.36 192.523 -8129.46 -2495 63.3776 
-8129.46 -2495 63.3776 -8154.22 -2495 28.2003 -8350.01 -2495 -250 
-8697.02 -2495 -743.076 -9114.06 -2495 -976.68 -9140.79 -2495 -991.652 
-9721.24 -2495 -1200 -9807.98 -2370.36 -1200 -9995 -2101.62 -1200 
-9995 -1696.11 -1098.71 -9995 -684.262 -845.952 -9995 14.0546 -605.232 
-9995 982.354 -356.556 -9995 1368.19 -250 -9995 1876.29 -109.68 
-9995 2931.7 46.474 -9995 3467.8 331.867 -9995 4159.33 700 
-9995 4449.72 854.588 -9995 4608.58 945.26 -9995 4608.58 945.26 
-9995 4608.78 945.372 -9995 4608.78 945.372 -9995 4608.93 945.46 
-9995 4608.93 945.46 -9995 4609.23 945.628 -9995 4609.23 945.628 
-9995 4610.16 946.16 -9995 4612.72 947.62 -9995 4752.75 1027.54 
-9995 4754.44 1028.5 -9995 4758.4 1030.77 -9995 4950.63 1140.48 
-9995 4950.63 1140.48 -9995 5011.09 1174.98 -9995 5011.09 1174.98 
-9993.13 5010.45 1175.58 -9972.71 4999.23 1179.62 -9955.84 4989.96 1182.96 
-9937.45 4979.86 1186.6 -9918.17 4967.92 1189.65 -9870.87 4938.65 1197.14 
-9825.26 4910.43 1204.36 -9801.53 4895.74 1208.12 -9761.86 4871.19 1214.4 
-9747.38 4862.23 1216.7 -9650.75 4802.43 1232 -9559.69 4668.49 1202.14 
-9523.74 4615.61 1190.34 -9494.61 4575.75 1182.5 -9449.16 4513.56 1170.26 
-9351.99 4380.6 1144.08 -9312.28 4338.06 1140.11 -9292.17 4316.51 1138.1 
-9275.97 4299.15 1136.48 -9139.38 4212.61 1125.89 -9079.89 4174.92 1121.28 
-9047.4 4154.34 1118.76 -8947.24 4090.89 1110.99 -8611 3877.86 1084.92 
-8544.58 3856.32 1092.58 -8225.29 3839.77 1183.68 -8186.58 3837.76 1194.72 
-8186.47 3837.75 1194.75 -8160.79 3836.42 1202.08 -8060.16 3831.2 1230.79 
-7998.2 3827.99 1248.47 -7993.68 3820.65 1250.24 -7961.29 3768 1262.91 
-7946.04 3743.21 1268.87 -7940.19 3557.31 1250.55 -7938.68 3509.19 1245.81 
-7937.57 3486.14 1243.76 -7937.53 3485.23 1243.68 -7916.56 3464.89 1247.79 
-9140.79 -2495 -991.652 -9114.06 -2495 -976.68 -9995 -684.262 -845.952 
-8697.02 -2495 -743.076 -9995 14.0546 -605.232 -9104.48 292.025 -10.5862 
-9995 982.354 -356.556 -9800.01 1700.75 -57.4868 -9995 1368.19 -250 
-9995 1876.29 -109.68 -9995 -684.262 -845.952 -9995 -1696.11 -1098.71 
-9140.79 -2495 -991.652 -9721.24 -2495 -1200 -7916.56 3464.89 1247.79 
-9012.29 1707.62 411.528 -7963.88 3311.57 1194.6 -8180.81 2609.35 950.94 
-9995 4608.93 945.46 -9995 4608.78 945.372 -9801.53 4895.74 1208.12 
-9995 4608.58 945.26 -9761.86 4871.19 1214.4 -9747.38 4862.23 1216.7 
-9995 4159.33 700 -9995 3467.8 331.867 -9637.97 2976.06 196.163 
-9995 2931.7 46.474 -9800.01 1700.75 -57.4868 -9995 1876.29 -109.68 
-9800.01 1700.75 -57.4868 -9104.48 292.025 -10.5862 -9012.29 1707.62 411.528 
-7984.62 1618.38 590.052 -8003.66 1772.13 630.136 -8532.67 -315.607 515.992 
-8427.36 -61.6571 503.596 -9104.48 292.025 -10.5862 -8156.44 565.33 479.576 
-7923.09 1110.44 457.372 -9047.4 4154.34 1118.76 -9079.89 4174.92 1121.28 
-9637.97 2976.06 196.163 -9139.38 4212.61 1125.89 -9275.97 4299.15 1136.48 
-8163.55 2462 891.84 -8187.31 2567.64 932.052 -9012.29 1707.62 411.528 
-8180.81 2609.35 950.94 -7937.57 3486.14 1243.76 -7938.68 3509.19 1245.81 
-9637.97 2976.06 196.163 -7940.19 3557.31 1250.55 -7946.04 3743.21 1268.87 
-9494.61 4575.75 1182.5 -9523.74 4615.61 1190.34 -9995 4449.72 854.588 
-9559.69 4668.49 1202.14 -9995 4608.58 945.26 -9650.75 4802.43 1232 
-9747.38 4862.23 1216.7 -8186.58 3837.76 1194.72 -8225.29 3839.77 1183.68 
-9637.97 2976.06 196.163 -8544.58 3856.32 1092.58 -8611 3877.86 1084.92 
-9292.17 4316.51 1138.1 -9312.28 4338.06 1140.11 -9637.97 2976.06 196.163 
-9351.99 4380.6 1144.08 -9995 4449.72 854.588 -9449.16 4513.56 1170.26 
-9494.61 4575.75 1182.5 -9995 4612.72 947.62 -9995 4610.16 946.16 
-9801.53 4895.74 1208.12 -9995 4609.23 945.628 -9995 4608.93 945.46 
-9995 -2101.62 -1200 -9807.98 -2370.36 -1200 -9995 -1696.11 -1098.71 
-9721.24 -2495 -1200 -9955.84 4989.96 1182.96 -9995 4950.63 1140.48 
-9937.45 4979.86 1186.6 -9995 4758.4 1030.77 -9918.17 4967.92 1189.65 
-9870.87 4938.65 1197.14 -7916.56 3464.89 1247.79 -7937.53 3485.23 1243.68 
-9012.29 1707.62 411.528 -9637.97 2976.06 196.163 -9800.01 1700.75 -57.4868 
-8611 3877.86 1084.92 -8947.24 4090.89 1110.99 -9637.97 2976.06 196.163 
-9047.4 4154.34 1118.76 -8186.58 3837.76 1194.72 -9637.97 2976.06 196.163 
-8186.47 3837.75 1194.75 -8160.79 3836.42 1202.08 -7984.62 1618.38 590.052 
-9104.48 292.025 -10.5862 -7930.71 1193.52 479.56 -7923.09 1110.44 457.372 
-8154.22 -2495 28.2003 -8129.46 -2495 63.3776 -9104.48 292.025 -10.5862 
-8204.04 -1995.36 192.523 -8278.37 -1627.04 260.218 -8041.35 1897.45 676.036 
-8111.9 2243.67 809.212 -9012.29 1707.62 411.528 -8156.12 2409.32 870.948 
-8163.55 2462 891.84 -8160.79 3836.42 1202.08 -9637.97 2976.06 196.163 
-8060.16 3831.2 1230.79 -7998.2 3827.99 1248.47 -9995 4754.44 1028.5 
-9995 4752.75 1027.54 -9825.26 4910.43 1204.36 -9801.53 4895.74 1208.12 
-7937.53 3485.23 1243.68 -7937.57 3486.14 1243.76 -9637.97 2976.06 196.163 
-9972.71 4999.23 1179.62 -9993.13 5010.45 1175.58 -9995 4950.63 1140.48 
-9995 5011.09 1174.98 -8697.02 -2495 -743.076 -8350.01 -2495 -250 
-9104.48 292.025 -10.5862 -8154.22 -2495 28.2003 -7998.2 3827.99 1248.47 
-9637.97 2976.06 196.163 -7993.68 3820.65 1250.24 -7961.29 3768 1262.91 
-9292.17 4316.51 1138.1 -9637.97 2976.06 196.163 -9275.97 4299.15 1136.48 
-9995 4449.72 854.588 -9995 4159.33 700 -9637.97 2976.06 196.163 
-8532.67 -315.607 515.992 -9104.48 292.025 -10.5862 -8524.88 -385.106 494.348 
-8436.07 -753.72 447.092 -9995 4754.44 1028.5 -9825.26 4910.43 1204.36 
-9995 4758.4 1030.77 -9870.87 4938.65 1197.14 -8532.67 -315.607 515.992 
-8491.47 -226.786 514.288 -8427.36 -61.6571 503.596 -8278.37 -1627.04 260.218 
-8436.07 -753.72 447.092 -9104.48 292.025 -10.5862 -9995 4752.75 1027.54 
-9995 4612.72 947.62 -9801.53 4895.74 1208.12 -8003.66 1772.13 630.136 
-8041.35 1897.45 676.036 -9012.29 1707.62 411.528 -7961.29 3768 1262.91 
-9637.97 2976.06 196.163 -7946.04 3743.21 1268.87 -9955.84 4989.96 1182.96 
-9972.71 4999.23 1179.62 -9995 4950.63 1140.48 -9995 4608.93 945.46 
-9995 4608.93 945.46 -9995 4608.93 945.46 -9995 4609.23 945.628 
-9995 4609.23 945.628 -9995 4608.93 945.46 -9995 4608.93 945.46 
-9995 4609.23 945.628 -9995 4608.93 945.46 -9995 4608.93 945.46 
-9995 4608.93 945.46 -9995 4608.93 945.46 -9995 4608.78 945.372 
-9995 4608.78 945.372 -9995 4608.93 945.46 -9995 4608.93 945.46 
-9995 4608.78 945.372 -9995 4608.93 945.46 -9995 4608.78 945.372 
-9995 4608.93 945.46 -9995 4608.93 945.46 -9995 4608.78 945.372 
-9995 4608.78 945.372 -9995 4608.58 945.26 -9995 4608.58 945.26 
-9995 4608.78 945.372 -9995 4608.78 945.372 -9995 4608.58 945.26 
-9995 4608.93 945.46 -9995 4608.78 945.372 -9995 4608.93 945.46 
-9995 4608.78 945.372 -9995 4608.78 945.372 -9995 4608.93 945.46 
-9995 4608.93 945.46 -9995 4608.93 945.46 -9995 4608.93 945.46 
-9995 4608.93 945.46 -9995 4608.78 945.372 -9995 4608.78 945.372 
-9995 4608.78 945.372 -9995 4608.78 945.372 -9995 4608.93 945.46 
-9995 4608.93 945.46 -9995 4608.78 945.372 -9995 4608.78 945.372 
-9995 4608.93 945.46 -9995 4608.78 945.372 -9995 4608.78 945.372 
-9995 4608.78 945.372 -9995 4608.78 945.372 -9995 4608.58 945.26 
-9995 4608.58 945.26 -9995 4608.78 945.372 -9995 4608.78 945.372 
-9995 4608.58 945.26 -9995 4608.78 945.372 -9995 4609.23 945.628 
-9995 4608.93 945.46 -9995 4608.93 945.46 -9995 4608.93 945.46 
-9995 4608.93 945.46 -9995 4609.23 945.628 -9995 4609.23 945.628 
-9995 4608.93 945.46 -9995 4608.93 945.46 
LINES 110 330
2 0 1 
2 1 2 
2 2 3 
2 3 4 
2 4 5 
2 5 6 
2 6 7 
2 7 8 
2 8 9 
2 9 10 
2 10 11 
2 11 12 
2 12 13 
2 13 14 
2 14 15 
2 15 16 
2 16 17 
2 17 18 
2 18 19 
2 19 20 
2 21 22 
2 22 23 
2 23 24 
2 24 25 
2 25 26 
2 26 27 
2 27 28 
2 28 29 
2 29 30 
2 30 31 
2 31 32 
2 32 33 
2 33 34 
2 34 35 
2 35 36 
2 36 37 
2 37 38 
2 38 39 
2 39 40 
2 41 42 
2 43 44 
2 45 46 
2 47 48 
2 48 49 
2 49 50 
2 50 51 
2 51 52 
2 52 53 
2 54 55 
2 56 57 
2 57 58 
2 58 59 
2 59 60 
2 60 61 
2 61 62 
2 62 63 
2 63 64 
2 64 65 
2 65 66 
2 66 67 
2 67 68 
2 68 69 
2 69 70 
2 70 71 
2 71 72 
2 72 73 
2 73 74 
2 74 75 
2 75 76 
2 76 77 
2 77 78 
2 78 79 
2 79 80 
2 80 81 
2 81 82 
2 82 83 
2 83 84 
2 84 85 
2 85 86 
2 86 87 
2 87 88 
2 88 89 
2 89 90 
2 90 91 
2 91 92 
2 92 93 
2 93 94 
2 94 95 
2 266 267 
2 268 269 
2 270 271 
2 275 276 
2 277 278 
2 279 280 
2 284 285 
2 286 287 
2 288 289 
2 290 291 
2 296 297 
2 298 299 
2 300 301 
2 305 306 
2 307 308 
2 309 310 
2 314 315 
2 316 317 
2 318 319 
2 323 324 
2 325 326 
2 327 328 

POLYGONS 102 408
3 96 97 98 
3 97 98 99 
3 98 99 100 
3 99 100 101 
3 100 101 102 
3 101 102 103 
3 102 103 104 
3 103 104 105 
3 106 107 108 
3 107 108 109 
3 110 111 112 
3 111 112 113 
3 114 115 116 
3 115 116 117 
3 116 117 118 
3 117 118 119 
3 120 121 122 
3 121 122 123 
3 122 123 124 
3 123 124 125 
3 126 127 128 
3 127 128 129 
3 128 129 130 
3 131 132 133 
3 132 133 134 
3 133 134 135 
3 136 137 138 
3 137 138 139 
3 138 139 140 
3 141 142 143 
3 142 143 144 
3 145 146 147 
3 146 147 148 
3 147 148 149 
3 150 151 152 
3 151 152 153 
3 152 153 154 
3 153 154 155 
3 154 155 156 
3 157 158 159 
3 158 159 160 
3 159 160 161 
3 162 163 164 
3 163 164 165 
3 164 165 166 
3 165 166 167 
3 166 167 168 
3 169 170 171 
3 170 171 172 
3 171 172 173 
3 174 175 176 
3 175 176 177 
3 178 179 180 
3 179 180 181 
3 180 181 182 
3 181 182 183 
3 184 185 186 
3 185 186 187 
3 186 187 188 
3 189 190 191 
3 190 191 192 
3 193 194 195 
3 194 195 196 
3 197 198 199 
3 198 199 200 
3 201 202 203 
3 202 203 204 
3 203 204 205 
3 206 207 208 
3 207 208 209 
3 208 209 210 
3 211 212 213 
3 212 213 214 
3 215 216 217 
3 216 217 218 
3 219 220 221 
3 222 223 224 
3 223 224 225 
3 226 227 228 
3 227 228 229 
3 230 231 232 
3 231 232 233 
3 234 235 236 
3 237 238 239 
3 240 241 242 
3 241 242 243 
3 244 245 246 
3 245 246 247 
3 248 249 250 
3 251 252 253 
3 254 255 256 
3 257 258 259 
3 260 261 262 
3 263 264 265 
3 272 273 274 
3 281 282 283 
3 292 293 294 
3 293 294 295 
3 302 303 304 
3 311 312 313 
3 320 321 322 
3 329 330 331 

POINT_DATA 332
COLOR_SCALARS VRMLColor 3
1 1 1 1 1 1 1 1 1 
1 1 1 1 1 1 
1 1 1 1 1 1 
1 1 1 1 1 1 
1 1 1 1 1 1 
1 1 1 1 1 1 
1 1 1 1 1 1 
1 1 1 1 1 1 
1 1 1 1 1 1 
1 1 1 1 1 1 
1 1 1 1 1 1 
1 1 1 1 1 1 
1 1 1 1 1 1 
1 1 1 1 1 1 
1 1 1 1 1 1 
1 1 1 1 1 1 
1 1 1 1 1 1 
1 1 1 1 1 1 
1 1 1 1 1 1 
1 1 1 1 1 1 
1 1 1 1 1 1 
1 1 1 1 1 1 
1 1 1 1 1 1 
1 1 1 1 1 1 
1 1 1 1 1 1 
1 1 1 1 1 1 
1 1 1 1 1 1 
1 1 1 1 1 1 
1 1 1 1 1 1 
1 1 1 1 1 1 
1 1 1 1 1 1 
1 1 1 1 1 1 
1 1 1 1 1 1 
1 1 1 1 1 1 
1 1 1 1 1 1 
1 1 1 1 1 1 
1 1 1 1 1 1 
1 1 1 1 1 1 
1 1 1 1 1 1 
1 1 1 1 1 1 
1 1 1 1 1 1 
1 1 1 1 1 1 
1 1 1 1 1 1 
1 1 1 1 1 1 
1 1 1 1 1 1 
1 1 1 1 1 1 
1 1 1 1 1 1 
1 1 1 0 0 0.803922 
0 0 0.803922 0 0 0.803922 
0 0 0.803922 0 0 0.803922 
0 0 0.803922 0 0 0.803922 
0 0 0.803922 0 0 0.803922 
0 0 0.803922 0 0 0.803922 
0 0 0.803922 0 0 0.803922 
0 0 0.803922 0 0 0.803922 
0 0 0.803922 0 0 0.803922 
0 0 0.803922 0 0 0.803922 
0 0 0.803922 0 0 0.803922 
0 0 0.803922 0 0 0.803922 
0 0 0.803922 0 0 0.803922 
0 0 0.803922 0 0 0.803922 
0 0 0.803922 0 0 0.803922 
0 0 0.803922 0 0 0.803922 
0 0 0.803922 0 0 0.803922 
0 0 0.803922 0 0 0.803922 
0 0 0.803922 0 0 0.803922 
0 0 0.803922 0 0 0.803922 
0 0 0.803922 0 0 0.803922 
0 0 0.803922 0 0 0.803922 
0 0 0.803922 0 0 0.803922 
0 0 0.803922 0 0 0.803922 
0 0 0.803922 0 0 0.803922 
0 0 0.803922 0 0 0.803922 
0 0 0.803922 0 0 0.803922 
0 0 0.803922 0 0 0.803922 
0 0 0.803922 0 0 0.803922 
0 0 0.803922 0 0 0.803922 
0 0 0.803922 0 0 0.803922 
0 0 0.803922 0 0 0.803922 
0 0 0.803922 0 0 0.803922 
0 0 0.803922 0 0 0.803922 
0 0 0.803922 0 0 0.803922 
0 0 0.803922 0 0 0.803922 
0 0 0.803922 0 0 0.803922 
0 0 0.803922 0 0 0.803922 
0 0 0.803922 0 0 0.803922 
0 0 0.803922 0 0 0.803922 
0 0 0.803922 0 0 0.803922 
0 0 0.803922 0 0 0.803922 
0 0 0.803922 0 0 0.803922 
0 0 0.803922 0 0 0.803922 
0 0 0.803922 0 0 0.803922 
0 0 0.803922 0 0 0.803922 
0 0 0.803922 0 0 0.803922 
0 0 0.803922 0 0 0.803922 
0 0 0.803922 0 0 0.803922 
0 0 0.803922 0 0 0.803922 
0 0 0.803922 0 0 0.803922 
0 0 0.803922 0 0 0.803922 
0 0 0.803922 0 0 0.803922 
0 0 0.803922 0 0 0.803922 
0 0 0.803922 0 0 0.803922 
0 0 0.803922 0 0 0.803922 
0 0 0.803922 0 0 0.803922 
0 0 0.803922 0 0 0.803922 
0 0 0.803922 0 0 0.803922 
0 0 0.803922 0 0 0.803922 
0 0 0.803922 0 0 0.803922 
0 0 0.803922 0 0 0.803922 
0 0 0.803922 0 0 0.803922 
0 0 0.803922 0 0 0.803922 
0 0 0.803922 0 0 0.803922 
0 0 0.803922 0 0 0.803922 
0 0 0.803922 0 0 0.803922 
0 0 0.803922 0 0 0.803922 
0 0 0.803922 0 0 0.803922 
0 0 0.803922 0 0 0.803922 
0 0 0.803922 0 0 0.803922 
0 0 0.803922 0 0 0.803922 
0 0 0.803922 0 0 0.803922 
0 0 0.803922 0 0 0.803922 
0 0 0.803922 0 0 0.803922 
0 0 0.803922 0 0 0.803922 
0 0 0.803922 0 0 0.803922 
0 0 0.803922 0 0 0.803922 
0 0 0.803922 0 0 0.803922 
0 0 0.803922 0 0 0.803922 
0 0 0.803922 0 0 0.803922 
0 0 0.803922 0 0 0.803922 
0 0 0.803922 0 0 0.803922 
0 0 0.803922 0 0 0.803922 
0 0 0.803922 0 0 0.803922 
0 0 0.803922 1 1 1 
1 1 1 1 1 1 
1 1 1 1 1 1 
1 1 1 0 0 0.803922 
0 0 0.803922 0 0 0.803922 
1 1 1 1 1 1 
1 1 1 1 1 1 
1 1 1 1 1 1 
0 0 0.803922 0 0 0.803922 
0 0 0.803922 1 1 1 
1 1 1 1 1 1 
1 1 1 1 1 1 
1 1 1 1 1 1 
1 1 1 0 0 0.803922 
0 0 0.803922 0 0 0.803922 
0 0 0.803922 1 1 1 
1 1 1 1 1 1 
1 1 1 1 1 1 
1 1 1 0 0 0.803922 
0 0 0.803922 0 0 0.803922 
1 1 1 1 1 1 
1 1 1 1 1 1 
1 1 1 1 1 1 
0 0 0.803922 0 0 0.803922 
0 0 0.803922 1 1 1 
1 1 1 1 1 1 
1 1 1 1 1 1 
1 1 1 0 0 0.803922 
0 0 0.803922 0 0 0.803922 
1 1 1 1 1 1 
1 1 1 1 1 1 
1 1 1 1 1 1 
0 0 0.803922 0 0 0.803922 
0 0 0.803922 
