# vtk DataFile Version 3.0
vtk output
ASCII
DATASET POLYDATA
POINTS 21713 float
3458.09 -302.939 865.764 3413.23 -85.3857 872.628 3300.08 -209.341 821.848 
3255.22 8.21243 828.716 3153 -270.294 790.784 3034.03 24.0869 818.04 
2931.81 -254.42 780.108 2812.84 39.9614 807.364 2716.54 -271.005 784.1 
2562.87 20.0248 812.164 2466.57 -290.941 788.9 2312.9 0.0881745 816.964 
2154.59 -174.584 804.864 2114.68 53.2046 836.44 1956.36 -121.468 824.336 
1916.45 106.321 855.912 1796.08 -27.8744 833.848 1772.95 254.285 896.544 
1652.59 120.09 874.48 1629.46 402.249 937.18 1503.14 194.83 883.44 
1436.9 507.156 955.712 1310.58 299.738 901.972 1244.34 612.064 974.244 
1143.58 324.642 976.376 1010.23 614.532 1103.15 909.464 327.11 1105.28 
776.111 616.999 1232.05 719.03 313.941 1267.19 523.769 517.791 1359.28 
466.687 214.734 1394.41 271.426 418.583 1486.5 289.667 169.907 1472.67 
63.8575 233.952 1503.98 82.0987 -14.7248 1490.15 -143.711 49.3201 1521.46 
-45.0096 -178.8 1468.54 -301.416 -156.241 1443.5 -202.715 -384.361 1390.58 
-459.121 -361.801 1365.53 -381.169 -560.217 1338.76 -590.119 -529.89 1216.12 
-512.167 -728.306 1189.35 -721.117 -697.979 1066.71 -567.78 -870.094 1137.57 
-816.004 -851.907 982.384 -662.667 -1024.02 1053.24 -910.892 -1005.83 898.06 
-846.642 -1103.06 896.996 -940.866 -1194.22 885.264 -782.392 -1200.29 895.936 
-876.616 -1291.45 884.204 -763.817 -1306.47 882.04 -858.041 -1397.63 870.308 
-745.242 -1412.66 868.144 -715.559 -1614.83 827.296 -640.496 -1458.83 927.7 
-610.812 -1661.01 886.852 -535.749 -1505.01 987.252 -467.673 -1692.06 956.94 
-440.808 -1375.12 1076.7 -308.994 -1582.48 1065.12 -345.868 -1245.23 1166.14 
-9.45097 -1391.74 1254.4 -110.55 -1155.33 1227.15 247.416 -1059.67 1335.54 
-89.2246 -912.028 1300.07 199.804 -808.705 1337.36 126.748 -607.813 1376.49 
347.745 -631.228 1368.93 274.689 -430.335 1408.06 495.686 -453.751 1400.5 
401.798 -266.26 1429.67 578.817 -221.434 1351.41 484.928 -33.9431 1380.58 
661.948 10.8836 1302.32 466.687 214.734 1394.41 719.03 313.941 1267.19 
-6034.57 5432.89 1518.64 -6087.85 5636.26 1488.52 -6215.81 5459.67 1493.08 
-6269.09 5663.03 1462.95 -6397.05 5486.44 1467.52 -6403.77 5663.35 1434.62 
-6518.18 5660.08 1462 -6524.89 5836.98 1429.11 -6639.3 5833.71 1456.49 
-6584.42 5944.54 1418.28 -6679.1 5967.69 1440.33 -6624.22 6078.51 1402.12 
-6718.9 6101.66 1424.17 -6673.02 6204.52 1398.87 -6780.41 6199.94 1391.81 
-6734.52 6302.8 1366.51 -6841.91 6298.22 1359.44 -6787.61 6417.66 1344.7 
-6905.23 6412.41 1279.34 -6850.93 6531.85 1264.6 -6968.55 6526.6 1199.23 
-6895.61 6625.73 1226.38 -6982.01 6684.55 1132.59 -6909.08 6783.68 1159.74 
-6995.48 6842.5 1065.94 -6912.51 6851.53 1140.82 -6924.37 6951.25 1103.12 
-6841.4 6960.28 1178 -6853.26 7059.99 1140.29 -6755.19 6997.93 1211.62 
-6719.01 7088.76 1194.23 -6620.94 7026.7 1265.56 -6584.76 7117.53 1248.18 
-6550.25 6863.4 1281.37 -6339.99 7086.53 1248.33 -6269.3 6923.23 1264.14 
-6095.22 7055.53 1248.49 -6119.2 6918.7 1280.47 -6083.62 6982.29 1257.47 
-6072.01 6909.05 1266.45 -5981.65 6920.31 1208.53 -6077.19 6837.14 1279.84 
-5986.83 6848.4 1221.92 -6082.37 6765.22 1293.22 -5930.33 6789.67 1216.98 
-5911.93 6630.02 1246.77 -5759.89 6654.47 1170.53 -5741.5 6494.82 1200.32 
-5659.89 6595.81 1159.26 -5647.69 6442.4 1192.94 -5566.08 6543.39 1151.89 
-5553.88 6389.98 1185.57 -5455.07 6484.25 1117.95 -5441.45 6388.52 1137.24 
-5356.27 6578.51 1050.33 -5221.23 6570.4 1016.87 -5271.17 6684.72 999.144 
-5086.18 6562.29 983.408 -5021.41 6751.67 940.468 -5019.78 6624.67 962.784 
-4953.38 6687.06 942.16 -4907.29 6625.33 960.46 -4802.2 6688.9 966.64 
-4756.12 6627.17 984.94 -4651.03 6690.74 991.12 -4686.71 6529.18 1024.06 
-4494.23 6355.1 1066.32 -4722.4 6367.62 1057 -4529.91 6193.54 1099.26 
-4711.58 6220.41 1093.24 -4700.77 6073.21 1129.49 -4785.83 6111.36 1093.96 
-4818.63 5949.24 1126.44 -4915.47 6244.48 1032.6 -5073.57 5764.31 1139.69 
-5346.21 6090.68 1174.52 -5387 5728.4 1266.75 -5659.64 6054.78 1301.58 
-5562.91 5765.96 1333.43 -5847.1 5743.84 1410.11 -5750.38 5455.02 1441.96 
-6034.57 5432.89 1518.64 -5886.28 5305.17 1505 -6081.79 5209.95 1550.88 
-5933.5 5082.23 1537.24 -6129.01 4987.01 1583.12 -5908.41 4743.24 1575.18 
-6244.63 4672.81 1559.56 -6024.04 4429.04 1551.62 -6360.26 4358.6 1535.99 
-6181.7 4003.62 1605.48 -6529.49 4033.3 1508.32 -6350.92 3678.32 1577.8 
-6698.71 3708 1480.64 -6605.73 3399.06 1480.17 -6911.79 3421.47 1448.79 
-6818.81 3112.53 1448.32 -7124.87 3134.93 1416.94 -6963.55 2873.08 1414.32 
-7510.78 2730.08 1276.56 -7349.47 2468.23 1273.93 -7896.69 2325.23 1136.17 
-7086.7 2122.16 1444.27 -7694.25 1431.13 1338.2 -6884.26 1228.06 1646.3 
-7491.82 537.032 1540.24 -6771.38 567.17 1872.86 -7227.69 264.398 1687.63 
-6507.25 294.535 2020.26 -6963.55 -8.23664 1835.02 -6669.7 14.7507 2025.04 
-6706.76 -393.156 1843.15 -6412.91 -370.169 2033.17 -6449.97 -778.076 1851.27 
-6296.44 -645.328 2008.18 -6314.28 -831.206 1920.75 -6160.75 -698.458 2077.66 
-6178.59 -884.336 1990.23 -6039.41 -895.155 2042.75 -6116.23 -954.501 1995.33 
-6053.87 -1024.67 2000.42 -6215.79 -1023.44 1885.87 -6220.12 -1276.55 1760.87 
-6382.03 -1275.33 1646.31 -6386.36 -1528.44 1521.31 -6452.19 -1354.99 1587.4 
-6587.12 -1493.43 1559.68 -6652.94 -1319.97 1625.77 -6787.87 -1458.41 1598.05 
-6810.36 -1228.25 1646.6 -6918.67 -1448.01 1554.58 -6941.15 -1217.85 1603.13 
-7049.46 -1437.61 1511.12 -7116.64 -1334.19 1525.08 -7197.99 -1411.17 1503.38 
-7183.82 -1230.77 1539.04 -7300.75 -1358.43 1555 -7406.4 -1362.66 1578.04 
-7417.68 -1486.09 1570.95 -7505.84 -1413.94 1571.65 -7514.81 -1564.5 1571.61 
-7602.97 -1492.35 1572.31 -7611.95 -1642.91 1572.27 -7709.92 -1544.51 1528.25 
-7745.78 -1687.4 1518.78 -7843.76 -1589 1474.76 -7879.61 -1731.9 1465.28 
-7950.49 -1694.42 1403.68 -7986.35 -1837.31 1394.21 -8093.09 -1942.72 1323.13 
-8014.43 -2022.72 1386.87 -8204 -2007.07 1213.34 -7935.77 -2102.72 1450.6 
-7983.8 -2276.8 1428.45 -7881.02 -2278.51 1511.97 -7929.05 -2452.59 1489.81 
-7729.6 -2412.97 1596.07 -7843.53 -2495 1571.16 -7819.97 -2495 1585.32 
326.966 -1538.24 1342.66 491.228 -1502.34 1359 390.597 -1397.52 1373.2 
554.859 -1361.61 1389.54 454.228 -1256.8 1403.74 595.437 -1217.07 1360.65 
486.413 -1176.1 1413.35 627.622 -1136.37 1370.26 518.599 -1095.41 1422.96 
565.411 -1003.46 1404.49 444.332 -1074.66 1402.94 491.144 -982.718 1384.46 
370.065 -1053.92 1382.92 406.014 -860.109 1361.69 284.935 -931.314 1360.14 
199.804 -808.705 1337.36 247.416 -1059.67 1335.54 -4322.6 2974.1 1472.8 
-4745.77 3411.11 1523.86 -4943.31 3031.62 1592.85 -5366.48 3468.63 1643.91 
-5564.02 3089.13 1712.9 -5783.57 3368.88 1693.93 -5822.57 3028.7 1687.76 
-6042.13 3308.45 1668.8 -6081.12 2968.27 1662.63 -6296.94 3029.19 1571.16 
-6236.24 2743.66 1602.22 -6452.06 2804.59 1510.76 -6391.36 2519.05 1541.82 
-6596.8 2565.14 1476.76 -6539.47 2265.16 1582.03 -6802.24 2611.23 1411.7 
-7086.7 2122.16 1444.27 -7349.47 2468.23 1273.93 -8151.74 6479.95 809.876 
-7969.3 6489.28 934.816 -8080.87 6571.36 842.708 -7898.43 6580.69 967.648 
-8010 6662.77 875.54 -7897.53 6708.18 944.224 -7957.99 6765.8 896.276 
-7845.51 6811.21 964.956 -7845.16 6882.75 952.74 -7784.7 6825.13 1000.69 
-7784.35 6896.67 988.472 -7668.93 6915.11 1016.7 -7750.02 6966.17 985.692 
-7634.6 6984.61 1013.92 -7636.75 7086.73 983.656 -7555.66 7035.67 1014.66 
-7557.82 7137.79 984.4 -7439.88 7118.99 960.328 -7529.18 7318.89 943.056 
-7270.41 7273.36 877.112 -7365.23 7495 819.344 -7358.59 7495 817.184 
2102.26 4164.05 1237.44 2221.37 3807.12 1338.89 2364.35 4098.57 1221.5 
2483.46 3741.63 1322.95 2767.56 4025.46 1164.62 2746.5 3676.77 1192.12 
3030.6 3960.6 1033.79 3009.54 3611.91 1061.29 3269.73 3662.58 982.64 
3132.05 3418.51 1025.07 3392.24 3469.17 946.42 3254.57 3225.11 988.848 
3521.25 3166.8 961.756 3255.54 2915.05 1028.89 3522.22 2856.75 1001.8 
3256.51 2605 1068.93 3730.36 2501.72 982.336 3464.66 2249.97 1049.47 
3672.8 1894.95 1030 3326.66 1905.6 1065.33 3517.58 1580.76 991.048 
3171.44 1591.42 1026.38 3362.36 1266.57 952.088 3064.44 1283.77 1004.16 
3215.9 958.54 921.224 2917.98 975.739 973.3 3069.43 650.511 890.36 
2801.89 662.339 934.48 2941.14 345.236 848.864 2673.6 357.064 892.98 
2812.84 39.9614 807.364 2562.87 20.0248 812.164 1509.27 7087.61 646.188 
1935.12 7075.93 648.872 1766.29 7287.97 624.62 1988.31 7256.6 629.64 
1819.47 7468.63 605.384 2041.49 7437.26 610.408 1834.55 7495 601.012 
1853.67 7495 600.996 -5925.5 -2145.72 1665.8 -5813.42 -2129.91 1678.3 
-5859.84 -2066.51 1712.96 -5747.76 -2050.69 1725.46 -5794.19 -1987.29 1760.12 
-5751.13 -1979.45 1753.74 -5777.32 -1934.41 1773.92 -5734.26 -1926.57 1767.55 
-5760.46 -1881.52 1787.73 -5711.78 -1891.81 1759.2 -5712.8 -1807.12 1780.33 
-5664.12 -1817.4 1751.8 -5665.14 -1732.71 1772.93 -5537.4 -1795.67 1605.61 
-5580.25 -1675.1 1694.32 -5452.51 -1738.06 1527 -5495.36 -1617.49 1615.7 
-5343.34 -1713.08 1501.89 -5426.42 -1499.44 1591.28 -5274.4 -1595.02 1477.46 
-5357.48 -1381.38 1566.86 -5152.38 -1450.04 1509.52 -5171.56 -1324.53 1533.29 
-4966.46 -1393.19 1475.95 -4985.64 -1267.68 1499.72 -4907.39 -1325.2 1448.65 
-4900.96 -1209.53 1450.85 -4822.71 -1267.05 1399.77 -4816.28 -1151.37 1401.97 
-4740.91 -1239.11 1331.3 -4718.69 -1104.18 1319.96 -4643.32 -1191.92 1249.29 
-4621.1 -1056.99 1237.96 -4554 -1275.03 1207.7 -4518.28 -1048.93 1190.49 
-4212.57 -1047.3 1073.84 -4321.16 -942.674 1103.32 -4118.27 -949.096 1034.14 
-4226.87 -844.473 1063.62 -4074.04 -738.658 1033.77 -4235.33 -652.794 1064.27 
-4082.5 -546.979 1034.42 -4243.79 -461.116 1064.92 -4094.01 -292.923 1038.9 
-4278.84 -205.942 1082.75 -4129.06 -37.7492 1056.73 -4313.9 49.2315 1100.59 
-4114.97 300.747 1086.89 -4397.01 353.107 1190.61 -4198.08 604.622 1176.91 
-4480.12 656.982 1280.63 -4319.65 972.048 1258.34 -4612.46 973.388 1409.14 
-4452 1288.45 1386.86 -4744.81 1289.79 1537.66 -4601.17 1583.89 1471.06 
-4893.98 1585.23 1621.86 -5043.15 1880.66 1706.06 -5173.26 1545.32 1781.79 
-5367.65 1819.87 1804.96 -5497.75 1484.54 1880.69 -5692.14 1759.08 1903.86 
[...]
POINT_DATA 21713
COLOR_SCALARS VRMLColor 3
0.411765 0.34902 0.803922 0.411765 0.34902 0.803922 0.411765 0.34902 0.803922 
0.411765 0.34902 0.803922 0.411765 0.34902 0.803922 
0.411765 0.34902 0.803922 0.411765 0.34902 0.803922 
0.411765 0.34902 0.803922 0.411765 0.34902 0.803922 
0.411765 0.34902 0.803922 0.411765 0.34902 0.803922 
0.411765 0.34902 0.803922 0.411765 0.34902 0.803922 
0.411765 0.34902 0.803922 0.411765 0.34902 0.803922 
0.411765 0.34902 0.803922 0.411765 0.34902 0.803922 
0.411765 0.34902 0.803922 0.411765 0.34902 0.803922 
0.411765 0.34902 0.803922 0.411765 0.34902 0.803922 
0.411765 0.34902 0.803922 0.411765 0.34902 0.803922 
0.411765 0.34902 0.803922 0.411765 0.34902 0.803922 
0.411765 0.34902 0.803922 0.411765 0.34902 0.803922 
0.411765 0.34902 0.803922 0.411765 0.34902 0.803922 
0.411765 0.34902 0.803922 0.411765 0.34902 0.803922 
0.411765 0.34902 0.803922 0.411765 0.34902 0.803922 
0.411765 0.34902 0.803922 0.411765 0.34902 0.803922 
0.411765 0.34902 0.803922 0.411765 0.34902 0.803922 
0.411765 0.34902 0.803922 0.411765 0.34902 0.803922 
0.411765 0.34902 0.803922 0.411765 0.34902 0.803922 
0.411765 0.34902 0.803922 0.411765 0.34902 0.803922 
0.411765 0.34902 0.803922 0.411765 0.34902 0.803922 
0.411765 0.34902 0.803922 0.411765 0.34902 0.803922 
0.411765 0.34902 0.803922 0.411765 0.34902 0.803922 
0.411765 0.34902 0.803922 0.411765 0.34902 0.803922 
0.411765 0.34902 0.803922 0.411765 0.34902 0.803922 
0.411765 0.34902 0.803922 0.411765 0.34902 0.803922 
0.411765 0.34902 0.803922 0.411765 0.34902 0.803922 
0.411765 0.34902 0.803922 0.411765 0.34902 0.803922 
0.411765 0.34902 0.803922 0.411765 0.34902 0.803922 
0.411765 0.34902 0.803922 0.411765 0.34902 0.803922 
0.411765 0.34902 0.803922 0.411765 0.34902 0.803922 
0.411765 0.34902 0.803922 0.411765 0.34902 0.803922 
0.411765 0.34902 0.803922 0.411765 0.34902 0.803922 
0.411765 0.34902 0.803922 0.411765 0.34902 0.803922 
0.411765 0.34902 0.803922 0.411765 0.34902 0.803922 
0.411765 0.34902 0.803922 0.411765 0.34902 0.803922 
0.411765 0.34902 0.803922 0.411765 0.34902 0.803922 
0.411765 0.34902 0.803922 0.411765 0.34902 0.803922 
0.411765 0.34902 0.803922 0.411765 0.34902 0.803922 
0.411765 0.34902 0.803922 0.411765 0.34902 0.803922 
0.411765 0.34902 0.803922 0.411765 0.34902 0.803922 
0.411765 0.34902 0.803922 0.411765 0.34902 0.803922 
0.411765 0.34902 0.803922 0.411765 0.34902 0.803922 
0.411765 0.34902 0.803922 0.411765 0.34902 0.803922 
0.411765 0.34902 0.803922 0.411765 0.34902 0.803922 
0.411765 0.34902 0.803922 0.411765 0.34902 0.803922 
0.411765 0.34902 0.803922 0.411765 0.34902 0.803922 
0.411765 0.34902 0.803922 0.411765 0.34902 0.803922 
0.411765 0.34902 0.803922 0.411765 0.34902 0.803922 
0.411765 0.34902 0.803922 0.411765 0.34902 0.803922 
0.411765 0.34902 0.803922 0.411765 0.34902 0.803922 
0.411765 0.34902 0.803922 0.411765 0.34902 0.803922 
0.411765 0.34902 0.803922 0.411765 0.34902 0.803922 
0.411765 0.34902 0.803922 0.411765 0.34902 0.803922 
0.411765 0.34902 0.803922 0.411765 0.34902 0.803922 
0.411765 0.34902 0.803922 0.411765 0.34902 0.803922 
0.411765 0.34902 0.803922 0.411765 0.34902 0.803922 
0.411765 0.34902 0.803922 0.411765 0.34902 0.803922 
0.411765 0.34902 0.803922 0.411765 0.34902 0.803922 
0.411765 0.34902 0.803922 0.411765 0.34902 0.803922 
0.411765 0.34902 0.803922 0.411765 0.34902 0.803922 
0.411765 0.34902 0.803922 0.411765 0.34902 0.803922 
0.411765 0.34902 0.803922 0.411765 0.34902 0.803922 
0.411765 0.34902 0.803922 0.411765 0.34902 0.803922 
0.411765 0.34902 0.803922 0.411765 0.34902 0.803922 
0.411765 0.34902 0.803922 0.411765 0.34902 0.803922 
0.411765 0.34902 0.803922 0.411765 0.34902 0.803922 
0.411765 0.34902 0.803922 0.411765 0.34902 0.803922 
0.411765 0.34902 0.803922 0.411765 0.34902 0.803922 
0.411765 0.34902 0.803922 0.411765 0.34902 0.803922 
0.411765 0.34902 0.803922 0.411765 0.34902 0.803922 
0.411765 0.34902 0.803922 0.411765 0.34902 0.803922 
0.411765 0.34902 0.803922 0.411765 0.34902 0.803922 
0.411765 0.34902 0.803922 0.411765 0.34902 0.803922 
0.411765 0.34902 0.803922 0.411765 0.34902 0.803922 
0.411765 0.34902 0.803922 0.411765 0.34902 0.803922 
0.411765 0.34902 0.803922 0.411765 0.34902 0.803922 
0.411765 0.34902 0.803922 0.411765 0.34902 0.803922 
0.411765 0.34902 0.803922 0.411765 0.34902 0.803922 
0.411765 0.34902 0.803922 0.411765 0.34902 0.803922 
0.411765 0.34902 0.803922 0.411765 0.34902 0.803922 
0.411765 0.34902 0.803922 0.411765 0.34902 0.803922 
0.411765 0.34902 0.803922 0.411765 0.34902 0.803922 
0.411765 0.34902 0.803922 0.411765 0.34902 0.803922 
0.411765 0.34902 0.803922 0.411765 0.34902 0.803922 
0.411765 0.34902 0.803922 0.411765 0.34902 0.803922 
0.411765 0.34902 0.803922 0.411765 0.34902 0.803922 
0.411765 0.34902 0.803922 0.411765 0.34902 0.803922 
0.411765 0.34902 0.803922 0.411765 0.34902 0.803922 
0.411765 0.34902 0.803922 0.411765 0.34902 0.803922 
0.411765 0.34902 0.803922 0.411765 0.34902 0.803922 
0.411765 0.34902 0.803922 0.411765 0.34902 0.803922 
0.411765 0.34902 0.803922 0.411765 0.34902 0.803922 
0.411765 0.34902 0.803922 0.411765 0.34902 0.803922 
0.411765 0.34902 0.803922 0.411765 0.34902 0.803922 
0.411765 0.34902 0.803922 0.411765 0.34902 0.803922 
0.411765 0.34902 0.803922 0.411765 0.34902 0.803922 
0.411765 0.34902 0.803922 0.411765 0.34902 0.803922 
0.411765 0.34902 0.803922 0.411765 0.34902 0.803922 
0.411765 0.34902 0.803922 0.411765 0.34902 0.803922 
0.411765 0.34902 0.803922 0.411765 0.34902 0.803922 
0.411765 0.34902 0.803922 0.411765 0.34902 0.803922 
0.411765 0.34902 0.803922 0.411765 0.34902 0.803922 
0.411765 0.34902 0.803922 0.411765 0.34902 0.803922 
0.411765 0.34902 0.803922 0.411765 0.34902 0.803922 
0.411765 0.34902 0.803922 0.411765 0.34902 0.803922 
0.411765 0.34902 0.803922 0.411765 0.34902 0.803922 
0.411765 0.34902 0.803922 0.411765 0.34902 0.803922 
0.411765 0.34902 0.803922 0.411765 0.34902 0.803922 
0.411765 0.34902 0.803922 0.411765 0.34902 0.803922 
0.411765 0.34902 0.803922 0.411765 0.34902 0.803922 
0.411765 0.34902 0.803922 0.411765 0.34902 0.803922 
0.411765 0.34902 0.803922 0.411765 0.34902 0.803922 
0.411765 0.34902 0.803922 0.411765 0.34902 0.803922 
0.411765 0.34902 0.803922 0.411765 0.34902 0.803922 
0.411765 0.34902 0.803922 0.411765 0.34902 0.803922 
0.411765 0.34902 0.803922 0.411765 0.34902 0.803922 
0.411765 0.34902 0.803922 0.411765 0.34902 0.803922 
0.411765 0.34902 0.803922 0.411765 0.34902 0.803922 
0.411765 0.34902 0.803922 0.411765 0.34902 0.803922 
0.411765 0.34902 0.803922 0.411765 0.34902 0.803922 
0.411765 0.34902 0.803922 0.411765 0.34902 0.803922 
0.411765 0.34902 0.803922 0.411765 0.34902 0.803922 
0.411765 0.34902 0.803922 0.411765 0.34902 0.803922 
0.411765 0.34902 0.803922 0.411765 0.34902 0.803922 
0.411765 0.34902 0.803922 0.411765 0.34902 0.803922 
0.411765 0.34902 0.803922 0.411765 0.34902 0.803922 
0.411765 0.34902 0.803922 0.411765 0.34902 0.803922 
0.411765 0.34902 0.803922 0.411765 0.34902 0.803922 
0.411765 0.34902 0.803922 0.411765 0.34902 0.803922 
0.411765 0.34902 0.803922 0.411765 0.34902 0.803922 
0.411765 0.34902 0.803922 0.411765 0.34902 0.803922 
0.411765 0.34902 0.803922 0.411765 0.34902 0.803922 
0.411765 0.34902 0.803922 0.411765 0.34902 0.803922 
0.411765 0.34902 0.803922 0.411765 0.34902 0.803922 
0.411765 0.34902 0.803922 0.411765 0.34902 0.803922 
0.411765 0.34902 0.803922 0.411765 0.34902 0.803922 
0.411765 0.34902 0.803922 0.411765 0.34902 0.803922 
0.411765 0.34902 0.803922 0.411765 0.34902 0.803922 
0.411765 0.34902 0.803922 0.411765 0.34902 0.803922 
0.411765 0.34902 0.803922 0.411765 0.34902 0.803922 
0.411765 0.34902 0.803922 0.411765 0.34902 0.803922 
0.411765 0.34902 0.803922 0.411765 0.34902 0.803922 
0.411765 0.34902 0.803922 0.411765 0.34902 0.803922 
0.411765 0.34902 0.803922 0.411765 0.34902 0.803922 
0.411765 0.34902 0.803922 0.411765 0.34902 0.803922 
0.411765 0.34902 0.803922 0.411765 0.34902 0.803922 
0.411765 0.34902 0.803922 0.411765 0.34902 0.803922 
0.411765 0.34902 0.803922 0.411765 0.34902 0.803922 
0.411765 0.34902 0.803922 0.411765 0.34902 0.803922 
0.411765 0.34902 0.803922 0.411765 0.34902 0.803922 
0.411765 0.34902 0.803922 0.411765 0.34902 0.803922 
0.411765 0.34902 0.803922 0.411765 0.34902 0.803922 
0.411765 0.34902 0.803922 0.411765 0.34902 0.803922 
0.411765 0.34902 0.803922 0.411765 0.34902 0.803922 
0.411765 0.34902 0.803922 0.411765 0.34902 0.803922 
0.411765 0.34902 0.803922 0.411765 0.34902 0.803922 
0.411765 0.34902 0.803922 0.411765 0.34902 0.803922 
0.411765 0.34902 0.803922 0.411765 0.34902 0.803922 
0.411765 0.34902 0.803922 0.411765 0.34902 0.803922 
0.411765 0.34902 0.803922 0.411765 0.34902 0.803922 
0.411765 0.34902 0.803922 0.411765 0.34902 0.803922 
0.411765 0.34902 0.803922 0.411765 0.34902 0.803922 
0.411765 0.34902 0.803922 0.411765 0.34902 0.803922 
0.411765 0.34902 0.803922 0.411765 0.34902 0.803922 
0.411765 0.34902 0.803922 0.411765 0.34902 0.803922 
0.411765 0.34902 0.803922 0.411765 0.34902 0.803922 
0.411765 0.34902 0.803922 0.411765 0.34902 0.803922 
0.411765 0.34902 0.803922 0.411765 0.34902 0.803922 
0.411765 0.34902 0.803922 0.411765 0.34902 0.803922 
0.411765 0.34902 0.803922 0.411765 0.34902 0.803922 
0.411765 0.34902 0.803922 0.411765 0.34902 0.803922 
0.411765 0.34902 0.803922 0.411765 0.34902 0.803922 
0.411765 0.34902 0.803922 0.411765 0.34902 0.803922 
0.411765 0.34902 0.803922 0.411765 0.34902 0.803922 
0.411765 0.34902 0.803922 0.411765 0.34902 0.803922 
0.411765 0.34902 0.803922 0.411765 0.34902 0.803922 
0.411765 0.34902 0.803922 0.411765 0.34902 0.803922 
0.411765 0.34902 0.803922 0.411765 0.34902 0.803922 
0.411765 0.34902 0.803922 0.411765 0.34902 0.803922 
0.411765 0.34902 0.803922 0.411765 0.34902 0.803922 
0.411765 0.34902 0.803922 0.411765 0.34902 0.803922 
0.411765 0.34902 0.803922 0.411765 0.34902 0.803922 
0.411765 0.34902 0.803922 0.411765 0.34902 0.803922 
0.411765 0.34902 0.803922 0.411765 0.34902 0.803922 
0.411765 0.34902 0.803922 0.411765 0.34902 0.803922 
0.411765 0.34902 0.803922 0.411765 0.34902 0.803922 
0.411765 0.34902 0.803922 0.411765 0.34902 0.803922 
0.411765 0.34902 0.803922 0.411765 0.34902 0.803922 
0.411765 0.34902 0.803922 0.411765 0.34902 0.803922 
0.411765 0.34902 0.803922 0.411765 0.34902 0.803922 
0.411765 0.34902 0.803922 0.411765 0.34902 0.803922 
0.411765 0.34902 0.803922 0.411765 0.34902 0.803922 
0.411765 0.34902 0.803922 0.411765 0.34902 0.803922 
0.411765 0.34902 0.803922 0.411765 0.34902 0.803922 
0.411765 0.34902 0.803922 0.411765 0.34902 0.803922 
0.411765 0.34902 0.803922 0.411765 0.34902 0.803922 
0.411765 0.34902 0.803922 0.411765 0.34902 0.803922 
0.411765 0.34902 0.803922 0.411765 0.34902 0.803922 
0.411765 0.34902 0.803922 0.411765 0.34902 0.803922 
0.411765 0.34902 0.803922 0.411765 0.34902 0.803922 
0.411765 0.34902 0.803922 0.411765 0.34902 0.803922 
0.411765 0.34902 0.803922 0.411765 0.34902 0.803922 
0.411765 0.34902 0.803922 0.411765 0.34902 0.803922 
0.411765 0.34902 0.803922 0.411765 0.34902 0.803922 
0.411765 0.34902 0.803922 0.411765 0.34902 0.803922 
0.411765 0.34902 0.803922 0.411765 0.34902 0.803922 
0.411765 0.34902 0.803922 0.411765 0.34902 0.803922 
0.411765 0.34902 0.803922 0.411765 0.34902 0.803922 
0.411765 0.34902 0.803922 0.411765 0.34902 0.803922 
0.411765 0.34902 0.803922 0.411765 0.34902 0.803922 
0.411765 0.34902 0.803922 0.411765 0.34902 0.803922 
0.411765 0.34902 0.803922 0.411765 0.34902 0.803922 
0.411765 0.34902 0.803922 0.411765 0.34902 0.803922 
0.411765 0.34902 0.803922 0.411765 0.34902 0.803922 
0.411765 0.34902 0.803922 0.411765 0.34902 0.803922 
0.411765 0.34902 0.803922 0.411765 0.34902 0.803922 
0.411765 0.34902 0.803922 0.411765 0.34902 0.803922 
0.411765 0.34902 0.803922 0.411765 0.34902 0.803922 
0.411765 0.34902 0.803922 0.411765 0.34902 0.803922 
0.411765 0.34902 0.803922 0.411765 0.34902 0.803922 
0.411765 0.34902 0.803922 0.411765 0.34902 0.803922 
0.411765 0.34902 0.803922 0.411765 0.34902 0.803922 
0.411765 0.34902 0.803922 0.411765 0.34902 0.803922 
0.411765 0.34902 0.803922 0.411765 0.34902 0.803922 
0.411765 0.34902 0.803922 0.411765 0.34902 0.803922 
0.411765 0.34902 0.803922 0.411765 0.34902 0.803922 
0.411765 0.34902 0.803922 0.411765 0.34902 0.803922 
0.411765 0.34902 0.803922 0.411765 0.34902 0.803922 
0.411765 0.34902 0.803922 0.411765 0.34902 0.803922 
0.411765 0.34902 0.803922 0.411765 0.34902 0.803922 
0.411765 0.34902 0.803922 0.411765 0.34902 0.803922 
0.411765 0.34902 0.803922 0.411765 0.34902 0.803922 
0.411765 0.34902 0.803922 0.411765 0.34902 0.803922 
0.411765 0.34902 0.803922 0.411765 0.34902 0.803922 
0.411765 0.34902 0.803922 0.411765 0.34902 0.803922 
0.411765 0.34902 0.803922 0.411765 0.34902 0.803922 
0.411765 0.34902 0.803922 0.411765 0.34902 0.803922 
0.411765 0.34902 0.803922 0.411765 0.34902 0.803922 
0.411765 0.34902 0.803922 0.411765 0.34902 0.803922 
0.411765 0.34902 0.803922 0.411765 0.34902 0.803922 
0.411765 0.34902 0.803922 0.411765 0.34902 0.803922 
0.411765 0.34902 0.803922 0.411765 0.34902 0.803922 
0.411765 0.34902 0.803922 0.411765 0.34902 0.803922 
0.411765 0.34902 0.803922 0.411765 0.34902 0.803922 
0.411765 0.34902 0.803922 0.411765 0.34902 0.803922 
0.411765 0.34902 0.803922 0.411765 0.34902 0.803922 
0.411765 0.34902 0.803922 0.411765 0.34902 0.803922 
0.411765 0.34902 0.803922 0.411765 0.34902 0.803922 
0.411765 0.34902 0.803922 0.411765 0.34902 0.803922 
0.411765 0.34902 0.803922 0.411765 0.34902 0.803922 
0.411765 0.34902 0.803922 0.411765 0.34902 0.803922 
0.411765 0.34902 0.803922 0.411765 0.34902 0.803922 
0.411765 0.34902 0.803922 0.411765 0.34902 0.803922 
0.411765 0.34902 0.803922 0.411765 0.34902 0.803922 
0.411765 0.34902 0.803922 0.411765 0.34902 0.803922 
0.411765 0.34902 0.803922 0.411765 0.34902 0.803922 
0.411765 0.34902 0.803922 0.411765 0.34902 0.803922 
0.411765 0.34902 0.803922 0.411765 0.34902 0.803922 
0.411765 0.34902 0.803922 0.411765 0.34902 0.803922 
0.411765 0.34902 0.803922 0.411765 0.34902 0.803922 
0.411765 0.34902 0.803922 0.411765 0.34902 0.803922 
0.411765 0.34902 0.803922 0.411765 0.34902 0.803922 
0.411765 0.34902 0.803922 0.411765 0.34902 0.803922 
0.411765 0.34902 0.803922 0.411765 0.34902 0.803922 
0.411765 0.34902 0.803922 0.411765 0.34902 0.803922 
0.411765 0.34902 0.803922 0.411765 0.34902 0.803922 
0.411765 0.34902 0.803922 0.411765 0.34902 0.803922 
0.411765 0.34902 0.803922 0.411765 0.34902 0.803922 
0.411765 0.34902 0.803922 0.411765 0.34902 0.803922 
0.411765 0.34902 0.803922 0.411765 0.34902 0.803922 
0.411765 0.34902 0.803922 0.411765 0.34902 0.803922 
0.411765 0.34902 0.803922 0.411765 0.34902 0.803922 
0.411765 0.34902 0.803922 0.411765 0.34902 0.803922 
0.411765 0.34902 0.803922 0.411765 0.34902 0.803922 
0.411765 0.34902 0.803922 0.411765 0.34902 0.803922 
0.411765 0.34902 0.803922 0.411765 0.34902 0.803922 
0.411765 0.34902 0.803922 0.411765 0.34902 0.803922 
0.411765 0.34902 0.803922 0.411765 0.34902 0.803922 
0.411765 0.34902 0.803922 0.411765 0.34902 0.803922 
0.411765 0.34902 0.803922 0.411765 0.34902 0.803922 
0.411765 0.34902 0.803922 0.411765 0.34902 0.803922 
0.411765 0.34902 0.803922 0.411765 0.34902 0.803922 
0.411765 0.34902 0.803922 0.411765 0.34902 0.803922 
0.411765 0.34902 0.803922 0.411765 0.34902 0.803922 
0.411765 0.34902 0.803922 0.411765 0.34902 0.803922 
0.411765 0.34902 0.803922 0.411765 0.34902 0.803922 
0.411765 0.34902 0.803922 0.411765 0.34902 0.803922 
0.411765 0.34902 0.803922 0.411765 0.34902 0.803922 
0.411765 0.34902 0.803922 0.411765 0.34902 0.803922 
0.411765 0.34902 0.803922 0.411765 0.34902 0.803922 
0.411765 0.34902 0.803922 0.411765 0.34902 0.803922 
0.411765 0.34902 0.803922 0.411765 0.34902 0.803922 
0.411765 0.34902 0.803922 0.411765 0.34902 0.803922 
0.411765 0.34902 0.803922 0.411765 0.34902 0.803922 
0.411765 0.34902 0.803922 0.411765 0.34902 0.803922 
0.411765 0.34902 0.803922 0.411765 0.34902 0.803922 
0.411765 0.34902 0.803922 0.411765 0.34902 0.803922 
0.411765 0.34902 0.803922 0.411765 0.34902 0.803922 
0.411765 0.34902 0.803922 0.411765 0.34902 0.803922 
0.411765 0.34902 0.803922 0.411765 0.34902 0.803922 
0.411765 0.34902 0.803922 0.411765 0.34902 0.803922 
0.411765 0.34902 0.803922 0.411765 0.34902 0.803922 
0.411765 0.34902 0.803922 0.411765 0.34902 0.803922 
0.411765 0.34902 0.803922 0.411765 0.34902 0.803922 
0.411765 0.34902 0.803922 0.411765 0.34902 0.803922 
0.411765 0.34902 0.803922 0.411765 0.34902 0.803922 
0.411765 0.34902 0.803922 0.411765 0.34902 0.803922 
0.411765 0.34902 0.803922 0.411765 0.34902 0.803922 
0.411765 0.34902 0.803922 0.411765 0.34902 0.803922 
0.411765 0.34902 0.803922 0.411765 0.34902 0.803922 
0.411765 0.34902 0.803922 0.411765 0.34902 0.803922 
0.411765 0.34902 0.803922 0.411765 0.34902 0.803922 
0.411765 0.34902 0.803922 0.411765 0.34902 0.803922 
0.411765 0.34902 0.803922 0.411765 0.34902 0.803922 
0.411765 0.34902 0.803922 0.411765 0.34902 0.803922 
0.411765 0.34902 0.803922 0.411765 0.34902 0.803922 
0.411765 0.34902 0.803922 0.411765 0.34902 0.803922 
0.411765 0.34902 0.803922 0.411765 0.34902 0.803922 
0.411765 0.34902 0.803922 0.411765 0.34902 0.803922 
0.411765 0.34902 0.803922 0.411765 0.34902 0.803922 
0.411765 0.34902 0.803922 0.411765 0.34902 0.803922 
0.411765 0.34902 0.803922 0.411765 0.34902 0.803922 
0.411765 0.34902 0.803922 0.411765 0.34902 0.803922 
0.411765 0.34902 0.803922 0.411765 0.34902 0.803922 
0.411765 0.34902 0.803922 0.411765 0.34902 0.803922 
0.411765 0.34902 0.803922 0.411765 0.34902 0.803922 
0.411765 0.34902 0.803922 0.411765 0.34902 0.803922 
0.411765 0.34902 0.803922 0.411765 0.34902 0.803922 
0.411765 0.34902 0.803922 0.411765 0.34902 0.803922 
0.411765 0.34902 0.803922 0.411765 0.34902 0.803922 
0.411765 0.34902 0.803922 0.411765 0.34902 0.803922 
0.411765 0.34902 0.803922 0.411765 0.34902 0.803922 
0.411765 0.34902 0.803922 0.411765 0.34902 0.803922 
0.411765 0.34902 0.803922 0.411765 0.34902 0.803922 
0.411765 0.34902 0.803922 0.411765 0.34902 0.803922 
0.411765 0.34902 0.803922 0.411765 0.34902 0.803922 
0.411765 0.34902 0.803922 0.411765 0.34902 0.803922 
0.411765 0.34902 0.803922 0.411765 0.34902 0.803922 
0.411765 0.34902 0.803922 0.411765 0.34902 0.803922 
0.411765 0.34902 0.803922 0.411765 0.34902 0.803922 
0.411765 0.34902 0.803922 0.411765 0.34902 0.803922 
0.411765 0.34902 0.803922 0.411765 0.34902 0.803922 
0.411765 0.34902 0.803922 0.411765 0.34902 0.803922 
0.411765 0.34902 0.803922 0.411765 0.34902 0.803922 
0.411765 0.34902 0.803922 0.411765 0.34902 0.803922 
0.411765 0.34902 0.803922 0.411765 0.34902 0.803922 
0.411765 0.34902 0.803922 0.411765 0.34902 0.803922 
0.411765 0.34902 0.803922 0.411765 0.34902 0.803922 
0.411765 0.34902 0.803922 0.411765 0.34902 0.803922 
0.411765 0.34902 0.803922 0.411765 0.34902 0.803922 
0.411765 0.34902 0.803922 0.411765 0.34902 0.803922 
0.411765 0.34902 0.803922 0.411765 0.34902 0.803922 
0.411765 0.34902 0.803922 0.411765 0.34902 0.803922 
0.411765 0.34902 0.803922 0.411765 0.34902 0.803922 
0.411765 0.34902 0.803922 0.411765 0.34902 0.803922 
0.411765 0.34902 0.803922 0.411765 0.34902 0.803922 
0.411765 0.34902 0.803922 0.411765 0.34902 0.803922 
0.411765 0.34902 0.803922 0.411765 0.34902 0.803922 
0.411765 0.34902 0.803922 0.411765 0.34902 0.803922 
0.411765 0.34902 0.803922 0.411765 0.34902 0.803922 
0.411765 0.34902 0.803922 0.411765 0.34902 0.803922 
0.411765 0.34902 0.803922 0.411765 0.34902 0.803922 
0.411765 0.34902 0.803922 0.411765 0.34902 0.803922 
0.411765 0.34902 0.803922 0.411765 0.34902 0.803922 
0.411765 0.34902 0.803922 0.411765 0.34902 0.803922 
0.411765 0.34902 0.803922 0.411765 0.34902 0.803922 
0.411765 0.34902 0.803922 0.411765 0.34902 0.803922 
0.411765 0.34902 0.803922 0.411765 0.34902 0.803922 
0.411765 0.34902 0.803922 0.411765 0.34902 0.803922 
0.411765 0.34902 0.803922 0.411765 0.34902 0.803922 
0.411765 0.34902 0.803922 0.411765 0.34902 0.803922 
0.411765 0.34902 0.803922 0.411765 0.34902 0.803922 
0.411765 0.34902 0.803922 0.411765 0.34902 0.803922 
0.411765 0.34902 0.803922 0.411765 0.34902 0.803922 