# vtk DataFile Version 3.0
vtk output
ASCII
DATASET POLYDATA
POINTS 702 float
3188.47 2461.63 1082.12 3193.7 2448.24 1076.15 3227.07 2414.4 1072.91 
3227.07 2414.4 1072.91 3188.47 2461.63 1082.12 3188.47 2461.63 1082.12 
3227.07 2414.4 1072.91 3193.7 2448.24 1076.15 4977.32 541.044 767.48 
4976.52 603.953 798.848 4976.52 603.953 798.848 4652.43 881.926 812.94 
4652.43 881.926 812.94 4977.32 541.044 767.48 4977.32 541.044 767.48 
4652.43 881.926 812.94 4976.52 603.953 798.848 4981.41 240.053 598.968 
4977.77 505.145 749.58 4977.32 541.044 767.48 4977.32 541.044 767.48 
4652.43 881.926 812.94 4652.43 881.926 812.94 4558.73 962.061 817.556 
4350.13 1192.44 854.288 4311.72 1234.86 861.052 4298.92 1248.99 863.304 
4038.18 1567.72 831.74 3586.57 2059.97 927.68 3393.84 2273.67 959.444 
3182.79 2474.81 1077.12 3159.69 2496.82 1090 3158.35 2498.09 1090.74 
3158.23 2498.18 1090.8 3157.09 2499.02 1091.34 3154.6 2500.84 1092.5 
3143.44 2508.03 1097.34 3133.36 2514.53 1101.7 3087.48 2544.09 1121.59 
3001.98 2605.62 1143.7 2979.61 2621.72 1149.48 2951.02 2642.29 1156.87 
2887.85 2684.21 1181.42 2840.42 2715.69 1199.86 2592.7 2880.07 1296.14 
2385.45 3061.87 1273.77 2143.57 3274.04 1247.67 1926.78 3475.07 1198.99 
1876.93 3521.31 1187.79 1807.12 3586.04 1172.11 1685.42 3687.78 1145.78 
1677.26 3694.07 1145.18 1591.98 3762.41 1139.35 1582.54 3769.98 1138.7 
1532.54 3810.05 1135.29 1493.86 3843.08 1132.89 1401.97 3921.52 1127.2 
1401.97 3921.52 1127.2 1364.32 3992.29 1051.26 1265.73 4113.36 974.832 
1130.9 4251.51 922.568 1019.59 4328.38 950.268 993.872 4354.1 941.5 
957.24 4390.74 929.008 924.555 4428.5 908.188 869.148 4487 883.42 
838.643 4522.04 864.384 792.839 4561.09 861.636 763.71 4592.59 847.196 
761.083 4595.51 845.876 713.558 4643.02 830.872 584.069 4784.51 769.404 
490.242 4882.82 732.072 377.831 4975.03 731.068 332.694 5009.24 735.492 
335.09 5017.21 718.512 333.725 5018.5 718.216 321.024 5038.23 715.376 
320.892 5038.42 715.36 301.574 5078.57 712.92 204.189 5220.39 761.924 
204.189 5220.39 761.924 117.875 5409.81 740.88 14.4442 5636.79 715.66 
2.74085 5658.38 712.56 -8.47369 5687.96 710.124 -22.1856 5724.12 707.148 
-22.8983 5726 706.992 -63.7042 5816.32 697.088 -239.705 6163.15 694.288 
-337.611 6302.4 689.668 -360.768 6331.45 688.356 -370.8 6344.04 687.784 
-381.204 6357.09 687.196 -460.898 6451.35 682.352 -1012.61 7190.91 490.964 
-1123.4 7329.67 470.22 -1136.84 7346.51 467.7 -1154.23 7368.29 464.444 
-1154.23 7368.29 464.444 -1154.46 7324.63 463.296 -1156.99 7218.51 484.368 
-1160.83 7024.23 522.544 -1164.22 6846.69 556.544 -1165.47 6832.04 559.824 
-1167.16 6811.31 564.428 -1170.14 6774.95 572.508 -1141.32 5376 813.228 
-1137.33 5345.42 816.844 -1124.54 5247.46 815.52 -1071.16 5012.16 809.876 
-1038.93 4919.26 806.436 -1013.5 4557.28 803.916 -1002.64 4425.16 802.828 
-975.94 4102.8 797.992 -925.206 3641.15 657.2 -862.912 3009.58 540.76 
-828.982 2824.8 506.66 -799.694 2654.79 486.964 -786.626 2420.16 458.82 
-767.771 2066.78 421.384 -764.856 2015.54 414.868 -732.67 1507.18 350.372 
-715.117 1110.01 299.663 -711.585 999.33 285.475 -707.058 793.431 281.709 
-718.861 575.03 275.373 -724.921 424.847 244.618 -755.38 197.496 195.498 
-762.595 117.87 162.056 -742.442 -6.01103 117.872 -733.744 -213.478 37.612 
-728.981 -366.995 -10.4544 -760.094 -563.423 -76.9636 -704.881 -965.944 -197.244 
-711.578 -1170.71 -263.113 -714.434 -1185.17 -268.085 -830.095 -1727.88 -405.664 
-849.387 -1991.7 -474.12 -815.162 -2110.42 -506.752 -719.781 -2427.2 -610.088 
-717.031 -2435.04 -612.676 -717.031 -2435.04 -612.676 43.6008 -2495 -686.976 
299.42 -2495 -632.284 828.065 -2495 -451.132 1231.32 -2495 -265.328 
1459.67 -2495 -256.389 3765.03 -2495 -375.008 4298.2 -2495 -369.008 
4560.3 -2495 -318.005 4732.93 -2495 -250 4796.73 -2495 -224.869 
4804.59 -2495 -221.77 4804.64 -2495 -221.751 4804.72 -2495 -221.72 
4804.8 -2495 -221.689 4804.88 -2495 -221.658 4804.96 -2495 -221.626 
4805.04 -2495 -221.595 4805.12 -2495 -221.564 4805.2 -2495 -221.532 
4805.58 -2495 -221.379 4805.85 -2495 -221.273 4859.11 -2495 -200.296 
4860.83 -2495 -199.614 4861.08 -2495 -199.52 4861.32 -2495 -199.424 
4861.56 -2495 -199.328 4861.8 -2495 -199.232 4862.05 -2495 -199.136 
4862.29 -2495 -199.039 4862.54 -2495 -198.942 4862.79 -2495 -198.844 
4863.04 -2495 -198.746 4865.6 -2495 -197.737 4865.87 -2495 -197.629 
4866.15 -2495 -197.521 4866.42 -2495 -197.413 4866.7 -2495 -197.304 
4866.98 -2495 -197.195 4867.26 -2495 -197.085 4867.54 -2495 -196.975 
4867.82 -2495 -196.864 4868.1 -2495 -196.753 4868.38 -2495 -196.641 
4868.67 -2495 -196.529 4868.95 -2495 -196.416 4869.24 -2495 -196.304 
4869.53 -2495 -196.19 4869.82 -2495 -196.076 4870.11 -2495 -195.962 
4870.4 -2495 -195.846 4870.69 -2495 -195.731 4870.99 -2495 -195.615 
4871.28 -2495 -195.499 4871.58 -2495 -195.382 4923.91 -2495 -174.767 
4924.3 -2495 -174.613 4924.52 -2495 -174.526 4925.27 -2495 -174.23 
4925.83 -2495 -174.013 4995 -2495 -146.763 4960.28 -1250 141.104 
4851.44 -625 256.284 4948.44 0 448.124 4981.41 240.053 598.968 
3393.84 2273.67 959.444 3586.57 2059.97 927.68 3492 1875 890.72 
4052.78 1250 768.864 3800.72 625 412.968 4161.77 625 492.956 
4015.25 0 187.421 4496.66 0 294.072 4085.89 -625 47.9812 
4851.44 -625 256.284 4397.23 -1250 -38.1329 4960.28 -1250 141.104 
4657.43 -1875 -127.393 4995 -2495 -146.763 4925.83 -2495 -174.013 
4866.42 -2495 -197.413 4866.15 -2495 -197.521 4657.43 -1875 -127.393 
4865.87 -2495 -197.629 4865.6 -2495 -197.737 2887.85 2684.21 1181.42 
2951.02 2642.29 1156.87 2949.75 2500 1127.77 2979.61 2621.72 1149.48 
3001.98 2605.62 1143.7 4871.28 -2495 -195.499 4870.99 -2495 -195.615 
4657.43 -1875 -127.393 4870.69 -2495 -195.731 4870.4 -2495 -195.846 
1681.15 3125 1195.4 1160.4 3750 1065.76 1807.12 3586.04 1172.11 
1685.42 3687.78 1145.78 1532.54 3810.05 1135.29 1582.54 3769.98 1138.7 
1160.4 3750 1065.76 1591.98 3762.41 1139.35 1677.26 3694.07 1145.18 
-22.8983 5726 706.992 -22.1856 5724.12 707.148 -63.7042 5816.32 697.088 
-8.47369 5687.96 710.124 2.74085 5658.38 712.56 428.8 2500 474.168 
1122.11 2500 739.94 763.305 1875 545.432 1896.54 1875 1033.4 
895.578 1250 450.784 1680.6 1250 596.54 1225.61 625 374.432 
1827.75 625 489.164 1793.36 0 217.046 2430.3 0 163.721 
2722.74 -625 6.91916 3556.06 0 128.17 3713.1 -1875 -249.969 
4085.89 -625 47.9812 4397.23 -1250 -38.1329 3154.6 2500.84 1092.5 
3157.09 2499.02 1091.34 2949.75 2500 1127.77 3158.23 2498.18 1090.8 
3158.35 2498.09 1090.74 4867.26 -2495 -197.085 4866.98 -2495 -197.195 
4657.43 -1875 -127.393 4866.7 -2495 -197.304 4866.42 -2495 -197.413 
2592.7 2880.07 1296.14 2840.42 2715.69 1199.86 2949.75 2500 1127.77 
2887.85 2684.21 1181.42 1265.73 4113.36 974.832 1364.32 3992.29 1051.26 
1160.4 3750 1065.76 1401.97 3921.52 1127.2 1493.86 3843.08 1132.89 
4862.05 -2495 -199.136 4861.8 -2495 -199.232 4657.43 -1875 -127.393 
4861.56 -2495 -199.328 4861.32 -2495 -199.424 3556.06 0 128.17 
2430.3 0 163.721 3800.72 625 412.968 2111.88 1250 756.512 
2973.57 1875 871.944 1896.54 1875 1033.4 2949.75 2500 1127.77 
2380.73 2500 1270.84 2592.7 2880.07 1296.14 2385.45 3061.87 1273.77 
299.42 -2495 -632.284 43.6008 -2495 -686.976 51.6511 -1875 -431.348 
-501.521 -1875 -458.3 -14.5952 -1250 -194.479 -711.578 -1170.71 -263.113 
-704.881 -965.944 -197.244 320.892 5038.42 715.36 321.024 5038.23 715.376 
-50.2205 4812.49 641.624 333.725 5018.5 718.216 335.09 5017.21 718.512 
-849.387 -1991.7 -474.12 -830.095 -1727.88 -405.664 -815.162 -2110.42 -506.752 
-501.521 -1875 -458.3 -719.781 -2427.2 -610.088 43.6008 -2495 -686.976 
-717.031 -2435.04 -612.676 895.578 1250 450.784 -285.456 625 337.541 
242.409 1875 438.696 -707.058 793.431 281.709 -711.585 999.33 285.475 
-1002.64 4425.16 802.828 -1013.5 4557.28 803.916 -587.507 4191.24 757.84 
-1038.93 4919.26 806.436 -1071.16 5012.16 809.876 761.083 4595.51 845.876 
614.6 4140.87 901.264 713.558 4643.02 830.872 584.069 4784.51 769.404 
-1136.84 7346.51 467.7 -1123.4 7329.67 470.22 -1154.46 7324.63 463.296 
-1012.61 7190.91 490.964 -50.2205 4812.49 641.624 -460.898 6451.35 682.352 
-381.204 6357.09 687.196 2.74085 5658.38 712.56 -50.2205 4812.49 641.624 
-63.7042 5816.32 697.088 -239.705 6163.15 694.288 4868.95 -2495 -196.416 
4868.67 -2495 -196.529 4657.43 -1875 -127.393 4868.38 -2495 -196.641 
4868.1 -2495 -196.753 3586.57 2059.97 927.68 4038.18 1567.72 831.74 
4052.78 1250 768.864 4298.92 1248.99 863.304 4311.72 1234.86 861.052 
-117.579 3750 600.124 244.374 3125 529.628 -328.371 3125 560.948 
-300.62 2500 485.724 -799.694 2654.79 486.964 -786.626 2420.16 458.82 
-1160.83 7024.23 522.544 -1156.99 7218.51 484.368 -117.579 3750 600.124 
-1154.46 7324.63 463.296 -50.2205 4812.49 641.624 4869.82 -2495 -196.076 
4869.53 -2495 -196.19 4657.43 -1875 -127.393 4869.24 -2495 -196.304 
4868.95 -2495 -196.416 3001.98 2605.62 1143.7 3087.48 2544.09 1121.59 
2949.75 2500 1127.77 3133.36 2514.53 1101.7 3143.44 2508.03 1097.34 
1160.4 3750 1065.76 656.027 3125 642.292 -117.579 3750 600.124 
244.374 3125 529.628 4924.3 -2495 -174.613 4923.91 -2495 -174.767 
4657.43 -1875 -127.393 4871.58 -2495 -195.382 4871.28 -2495 -195.499 
895.578 1250 450.784 242.409 1875 438.696 763.305 1875 545.432 
428.8 2500 474.168 4977.77 505.145 749.58 4161.77 625 492.956 
4977.32 541.044 767.48 4652.43 881.926 812.94 -381.204 6357.09 687.196 
-370.8 6344.04 687.784 -50.2205 4812.49 641.624 -360.768 6331.45 688.356 
-337.611 6302.4 689.668 1896.54 1875 1033.4 2111.88 1250 756.512 
1680.6 1250 596.54 1827.75 625 489.164 204.189 5220.39 761.924 
301.574 5078.57 712.92 -50.2205 4812.49 641.624 320.892 5038.42 715.36 
-50.2205 4812.49 641.624 614.6 4140.87 901.264 -117.579 3750 600.124 
1160.4 3750 1065.76 -285.456 625 337.541 739.005 625 456.86 
497.797 -625 181.929 1793.36 0 217.046 1625.77 -1250 -20.1102 
2722.74 -625 6.91916 3713.1 -1875 -249.969 -830.095 -1727.88 -405.664 
-714.434 -1185.17 -268.085 -501.521 -1875 -458.3 -711.578 -1170.71 -263.113 
4804.72 -2495 -221.72 4804.64 -2495 -221.751 4657.43 -1875 -127.393 
[...]
POINT_DATA 702
COLOR_SCALARS VRMLColor 3
1 1 1 1 1 1 1 1 1 
1 1 1 1 1 1 
0.498039 0 0.247059 0.498039 0 0.247059 
0.498039 0 0.247059 1 1 1 
1 1 1 1 1 1 
1 1 1 1 1 1 
1 1 1 0.498039 0 0.247059 
0.498039 0 0.247059 0.498039 0 0.247059 
1 1 1 1 1 1 
1 1 1 1 1 1 
1 1 1 1 1 1 
1 1 1 1 1 1 
1 1 1 1 1 1 
1 1 1 1 1 1 
1 1 1 1 1 1 
1 1 1 1 1 1 
1 1 1 1 1 1 
1 1 1 1 1 1 
1 1 1 1 1 1 
1 1 1 1 1 1 
1 1 1 1 1 1 
1 1 1 1 1 1 
1 1 1 1 1 1 
1 1 1 1 1 1 
1 1 1 1 1 1 
1 1 1 1 1 1 
1 1 1 1 1 1 
1 1 1 1 1 1 
1 1 1 1 1 1 
1 1 1 1 1 1 
1 1 1 1 1 1 
1 1 1 1 1 1 
1 1 1 1 1 1 
1 1 1 1 1 1 
1 1 1 1 1 1 
1 1 1 1 1 1 
1 1 1 1 1 1 
1 1 1 1 1 1 
1 1 1 1 1 1 
1 1 1 1 1 1 
1 1 1 1 1 1 
1 1 1 1 1 1 
1 1 1 1 1 1 
1 1 1 1 1 1 
1 1 1 1 1 1 
1 1 1 1 1 1 
1 1 1 1 1 1 
1 1 1 1 1 1 
1 1 1 1 1 1 
1 1 1 1 1 1 
1 1 1 1 1 1 
1 1 1 1 1 1 
1 1 1 1 1 1 
1 1 1 1 1 1 
1 1 1 1 1 1 
1 1 1 1 1 1 
1 1 1 1 1 1 
1 1 1 1 1 1 
1 1 1 1 1 1 
1 1 1 1 1 1 
1 1 1 1 1 1 
1 1 1 1 1 1 
1 1 1 1 1 1 
1 1 1 1 1 1 
1 1 1 1 1 1 
1 1 1 1 1 1 
1 1 1 1 1 1 
1 1 1 1 1 1 
1 1 1 1 1 1 
1 1 1 1 1 1 
1 1 1 1 1 1 
1 1 1 1 1 1 
1 1 1 1 1 1 
1 1 1 1 1 1 
1 1 1 1 1 1 
1 1 1 1 1 1 
1 1 1 1 1 1 
1 1 1 1 1 1 
1 1 1 1 1 1 
1 1 1 1 1 1 
1 1 1 1 1 1 
1 1 1 1 1 1 
1 1 1 1 1 1 
1 1 1 1 1 1 
1 1 1 1 1 1 
1 1 1 1 1 1 
1 1 1 1 1 1 
1 1 1 1 1 1 
1 1 1 1 1 1 
1 1 1 1 1 1 
1 1 1 1 1 1 
1 1 1 1 1 1 
1 1 1 1 1 1 
1 1 1 1 1 1 
1 1 1 1 1 1 
1 1 1 1 1 1 
1 1 1 1 1 1 
1 1 1 1 1 1 
1 1 1 1 1 1 
1 1 1 1 1 1 
1 1 1 1 1 1 
1 1 1 1 1 1 
1 1 1 1 1 1 
0.498039 0 0.247059 0.498039 0 0.247059 
0.498039 0 0.247059 0.498039 0 0.247059 
0.498039 0 0.247059 0.498039 0 0.247059 
0.498039 0 0.247059 0.498039 0 0.247059 
0.498039 0 0.247059 0.498039 0 0.247059 
0.498039 0 0.247059 0.498039 0 0.247059 
0.498039 0 0.247059 0.498039 0 0.247059 
0.498039 0 0.247059 0.498039 0 0.247059 
0.498039 0 0.247059 0.498039 0 0.247059 
0.498039 0 0.247059 0.498039 0 0.247059 
0.498039 0 0.247059 0.498039 0 0.247059 
0.498039 0 0.247059 0.498039 0 0.247059 
0.498039 0 0.247059 0.498039 0 0.247059 
0.498039 0 0.247059 0.498039 0 0.247059 
0.498039 0 0.247059 0.498039 0 0.247059 
0.498039 0 0.247059 0.498039 0 0.247059 
0.498039 0 0.247059 0.498039 0 0.247059 
0.498039 0 0.247059 0.498039 0 0.247059 
0.498039 0 0.247059 0.498039 0 0.247059 
0.498039 0 0.247059 0.498039 0 0.247059 
0.498039 0 0.247059 0.498039 0 0.247059 
0.498039 0 0.247059 0.498039 0 0.247059 
0.498039 0 0.247059 0.498039 0 0.247059 
0.498039 0 0.247059 0.498039 0 0.247059 
0.498039 0 0.247059 0.498039 0 0.247059 
0.498039 0 0.247059 0.498039 0 0.247059 
0.498039 0 0.247059 0.498039 0 0.247059 
0.498039 0 0.247059 0.498039 0 0.247059 
0.498039 0 0.247059 0.498039 0 0.247059 
0.498039 0 0.247059 0.498039 0 0.247059 
0.498039 0 0.247059 0.498039 0 0.247059 
0.498039 0 0.247059 0.498039 0 0.247059 
0.498039 0 0.247059 0.498039 0 0.247059 
0.498039 0 0.247059 0.498039 0 0.247059 
0.498039 0 0.247059 0.498039 0 0.247059 
0.498039 0 0.247059 0.498039 0 0.247059 
0.498039 0 0.247059 0.498039 0 0.247059 
0.498039 0 0.247059 0.498039 0 0.247059 
0.498039 0 0.247059 0.498039 0 0.247059 
0.498039 0 0.247059 0.498039 0 0.247059 
0.498039 0 0.247059 0.498039 0 0.247059 
0.498039 0 0.247059 0.498039 0 0.247059 
0.498039 0 0.247059 0.498039 0 0.247059 
0.498039 0 0.247059 0.498039 0 0.247059 
0.498039 0 0.247059 0.498039 0 0.247059 
0.498039 0 0.247059 0.498039 0 0.247059 
0.498039 0 0.247059 0.498039 0 0.247059 
0.498039 0 0.247059 0.498039 0 0.247059 
0.498039 0 0.247059 0.498039 0 0.247059 
0.498039 0 0.247059 0.498039 0 0.247059 
0.498039 0 0.247059 0.498039 0 0.247059 
0.498039 0 0.247059 0.498039 0 0.247059 
0.498039 0 0.247059 0.498039 0 0.247059 
0.498039 0 0.247059 0.498039 0 0.247059 
0.498039 0 0.247059 0.498039 0 0.247059 
0.498039 0 0.247059 0.498039 0 0.247059 
0.498039 0 0.247059 0.498039 0 0.247059 
0.498039 0 0.247059 0.498039 0 0.247059 
0.498039 0 0.247059 0.498039 0 0.247059 
0.498039 0 0.247059 0.498039 0 0.247059 
0.498039 0 0.247059 0.498039 0 0.247059 
0.498039 0 0.247059 0.498039 0 0.247059 
0.498039 0 0.247059 0.498039 0 0.247059 
0.498039 0 0.247059 0.498039 0 0.247059 
0.498039 0 0.247059 0.498039 0 0.247059 
0.498039 0 0.247059 0.498039 0 0.247059 
0.498039 0 0.247059 0.498039 0 0.247059 
0.498039 0 0.247059 0.498039 0 0.247059 
0.498039 0 0.247059 0.498039 0 0.247059 
0.498039 0 0.247059 0.498039 0 0.247059 
0.498039 0 0.247059 0.498039 0 0.247059 
0.498039 0 0.247059 0.498039 0 0.247059 
0.498039 0 0.247059 0.498039 0 0.247059 
0.498039 0 0.247059 0.498039 0 0.247059 
0.498039 0 0.247059 0.498039 0 0.247059 
0.498039 0 0.247059 0.498039 0 0.247059 
0.498039 0 0.247059 0.498039 0 0.247059 
0.498039 0 0.247059 0.498039 0 0.247059 
0.498039 0 0.247059 0.498039 0 0.247059 
0.498039 0 0.247059 0.498039 0 0.247059 
0.498039 0 0.247059 0.498039 0 0.247059 
0.498039 0 0.247059 0.498039 0 0.247059 
0.498039 0 0.247059 0.498039 0 0.247059 
0.498039 0 0.247059 0.498039 0 0.247059 
0.498039 0 0.247059 0.498039 0 0.247059 
0.498039 0 0.247059 0.498039 0 0.247059 
0.498039 0 0.247059 0.498039 0 0.247059 
0.498039 0 0.247059 0.498039 0 0.247059 
0.498039 0 0.247059 0.498039 0 0.247059 
0.498039 0 0.247059 0.498039 0 0.247059 
0.498039 0 0.247059 0.498039 0 0.247059 
0.498039 0 0.247059 0.498039 0 0.247059 
0.498039 0 0.247059 0.498039 0 0.247059 
0.498039 0 0.247059 0.498039 0 0.247059 
0.498039 0 0.247059 0.498039 0 0.247059 
0.498039 0 0.247059 0.498039 0 0.247059 
0.498039 0 0.247059 0.498039 0 0.247059 
0.498039 0 0.247059 0.498039 0 0.247059 
0.498039 0 0.247059 0.498039 0 0.247059 
0.498039 0 0.247059 0.498039 0 0.247059 
0.498039 0 0.247059 0.498039 0 0.247059 
0.498039 0 0.247059 0.498039 0 0.247059 
0.498039 0 0.247059 0.498039 0 0.247059 
0.498039 0 0.247059 0.498039 0 0.247059 
0.498039 0 0.247059 0.498039 0 0.247059 
0.498039 0 0.247059 0.498039 0 0.247059 
0.498039 0 0.247059 0.498039 0 0.247059 
0.498039 0 0.247059 0.498039 0 0.247059 
0.498039 0 0.247059 0.498039 0 0.247059 
0.498039 0 0.247059 0.498039 0 0.247059 
0.498039 0 0.247059 0.498039 0 0.247059 
0.498039 0 0.247059 0.498039 0 0.247059 
0.498039 0 0.247059 0.498039 0 0.247059 
0.498039 0 0.247059 0.498039 0 0.247059 
0.498039 0 0.247059 0.498039 0 0.247059 
0.498039 0 0.247059 0.498039 0 0.247059 
0.498039 0 0.247059 0.498039 0 0.247059 
0.498039 0 0.247059 0.498039 0 0.247059 
0.498039 0 0.247059 0.498039 0 0.247059 
0.498039 0 0.247059 0.498039 0 0.247059 
0.498039 0 0.247059 0.498039 0 0.247059 
0.498039 0 0.247059 0.498039 0 0.247059 
0.498039 0 0.247059 0.498039 0 0.247059 
0.498039 0 0.247059 0.498039 0 0.247059 
0.498039 0 0.247059 0.498039 0 0.247059 
0.498039 0 0.247059 0.498039 0 0.247059 
0.498039 0 0.247059 0.498039 0 0.247059 
0.498039 0 0.247059 0.498039 0 0.247059 
0.498039 0 0.247059 0.498039 0 0.247059 
0.498039 0 0.247059 0.498039 0 0.247059 
0.498039 0 0.247059 0.498039 0 0.247059 
0.498039 0 0.247059 0.498039 0 0.247059 
0.498039 0 0.247059 0.498039 0 0.247059 
0.498039 0 0.247059 0.498039 0 0.247059 
0.498039 0 0.247059 0.498039 0 0.247059 
0.498039 0 0.247059 0.498039 0 0.247059 
0.498039 0 0.247059 0.498039 0 0.247059 
0.498039 0 0.247059 0.498039 0 0.247059 
0.498039 0 0.247059 0.498039 0 0.247059 
0.498039 0 0.247059 0.498039 0 0.247059 
0.498039 0 0.247059 0.498039 0 0.247059 
0.498039 0 0.247059 0.498039 0 0.247059 
0.498039 0 0.247059 0.498039 0 0.247059 
0.498039 0 0.247059 0.498039 0 0.247059 
0.498039 0 0.247059 0.498039 0 0.247059 
0.498039 0 0.247059 0.498039 0 0.247059 
0.498039 0 0.247059 0.498039 0 0.247059 
0.498039 0 0.247059 0.498039 0 0.247059 
0.498039 0 0.247059 0.498039 0 0.247059 
0.498039 0 0.247059 0.498039 0 0.247059 
0.498039 0 0.247059 0.498039 0 0.247059 
0.498039 0 0.247059 0.498039 0 0.247059 
0.498039 0 0.247059 0.498039 0 0.247059 
0.498039 0 0.247059 0.498039 0 0.247059 
0.498039 0 0.247059 0.498039 0 0.247059 
0.498039 0 0.247059 0.498039 0 0.247059 
0.498039 0 0.247059 0.498039 0 0.247059 
0.498039 0 0.247059 0.498039 0 0.247059 
0.498039 0 0.247059 0.498039 0 0.247059 
0.498039 0 0.247059 0.498039 0 0.247059 
0.498039 0 0.247059 0.498039 0 0.247059 
0.498039 0 0.247059 0.498039 0 0.247059 
0.498039 0 0.247059 0.498039 0 0.247059 
0.498039 0 0.247059 0.498039 0 0.247059 
0.498039 0 0.247059 0.498039 0 0.247059 
0.498039 0 0.247059 0.498039 0 0.247059 
0.498039 0 0.247059 0.498039 0 0.247059 
0.498039 0 0.247059 0.498039 0 0.247059 
0.498039 0 0.247059 0.498039 0 0.247059 
0.498039 0 0.247059 0.498039 0 0.247059 
0.498039 0 0.247059 0.498039 0 0.247059 
0.498039 0 0.247059 0.498039 0 0.247059 
0.498039 0 0.247059 0.498039 0 0.247059 
0.498039 0 0.247059 0.498039 0 0.247059 
0.498039 0 0.247059 0.498039 0 0.247059 
0.498039 0 0.247059 0.498039 0 0.247059 
0.498039 0 0.247059 0.498039 0 0.247059 
0.498039 0 0.247059 0.498039 0 0.247059 
0.498039 0 0.247059 0.498039 0 0.247059 
0.498039 0 0.247059 0.498039 0 0.247059 
0.498039 0 0.247059 0.498039 0 0.247059 
0.498039 0 0.247059 0.498039 0 0.247059 
0.498039 0 0.247059 0.498039 0 0.247059 
0.498039 0 0.247059 0.498039 0 0.247059 
0.498039 0 0.247059 0.498039 0 0.247059 
0.498039 0 0.247059 0.498039 0 0.247059 
0.498039 0 0.247059 0.498039 0 0.247059 
0.498039 0 0.247059 0.498039 0 0.247059 
0.498039 0 0.247059 0.498039 0 0.247059 
0.498039 0 0.247059 0.498039 0 0.247059 
0.498039 0 0.247059 0.498039 0 0.247059 
0.498039 0 0.247059 0.498039 0 0.247059 
0.498039 0 0.247059 0.498039 0 0.247059 
0.498039 0 0.247059 0.498039 0 0.247059 
0.498039 0 0.247059 0.498039 0 0.247059 
0.498039 0 0.247059 0.498039 0 0.247059 
0.498039 0 0.247059 0.498039 0 0.247059 
0.498039 0 0.247059 0.498039 0 0.247059 
0.498039 0 0.247059 0.498039 0 0.247059 
0.498039 0 0.247059 0.498039 0 0.247059 
0.498039 0 0.247059 0.498039 0 0.247059 
0.498039 0 0.247059 0.498039 0 0.247059 
0.498039 0 0.247059 0.498039 0 0.247059 
0.498039 0 0.247059 0.498039 0 0.247059 
0.498039 0 0.247059 0.498039 0 0.247059 
0.498039 0 0.247059 0.498039 0 0.247059 
0.498039 0 0.247059 0.498039 0 0.247059 
0.498039 0 0.247059 0.498039 0 0.247059 
0.498039 0 0.247059 0.498039 0 0.247059 
0.498039 0 0.247059 0.498039 0 0.247059 
0.498039 0 0.247059 0.498039 0 0.247059 
0.498039 0 0.247059 0.498039 0 0.247059 
0.498039 0 0.247059 0.498039 0 0.247059 
0.498039 0 0.247059 0.498039 0 0.247059 
0.498039 0 0.247059 0.498039 0 0.247059 
0.498039 0 0.247059 0.498039 0 0.247059 
0.498039 0 0.247059 0.498039 0 0.247059 
0.498039 0 0.247059 0.498039 0 0.247059 
0.498039 0 0.247059 0.498039 0 0.247059 
0.498039 0 0.247059 0.498039 0 0.247059 
0.498039 0 0.247059 0.498039 0 0.247059 
0.498039 0 0.247059 0.498039 0 0.247059 
0.498039 0 0.247059 0.498039 0 0.247059 
0.498039 0 0.247059 0.498039 0 0.247059 
0.498039 0 0.247059 0.498039 0 0.247059 
0.498039 0 0.247059 0.498039 0 0.247059 
0.498039 0 0.247059 0.498039 0 0.247059 
0.498039 0 0.247059 0.498039 0 0.247059 
0.498039 0 0.247059 0.498039 0 0.247059 
0.498039 0 0.247059 0.498039 0 0.247059 
0.498039 0 0.247059 0.498039 0 0.247059 
0.498039 0 0.247059 0.498039 0 0.247059 
0.498039 0 0.247059 0.498039 0 0.247059 
0.498039 0 0.247059 0.498039 0 0.247059 
0.498039 0 0.247059 0.498039 0 0.247059 
0.498039 0 0.247059 0.498039 0 0.247059 
0.498039 0 0.247059 0.498039 0 0.247059 
0.498039 0 0.247059 0.498039 0 0.247059 
0.498039 0 0.247059 0.498039 0 0.247059 
0.498039 0 0.247059 0.498039 0 0.247059 
0.498039 0 0.247059 0.498039 0 0.247059 
0.498039 0 0.247059 0.498039 0 0.247059 
0.498039 0 0.247059 0.498039 0 0.247059 
0.498039 0 0.247059 1 1 1 
1 1 1 1 1 1 
1 1 1 0.498039 0 0.247059 
0.498039 0 0.247059 0.498039 0 0.247059 
0.498039 0 0.247059 
