# vtk DataFile Version 3.0
vtk output
ASCII
DATASET POLYDATA
POINTS 615 float
4900.66 533.226 1186.22 4896.91 -231.439 759.516 4993.06 -1430.57 429.252 
4993.06 -1430.57 429.252 4994.73 -1598.45 377.768 4995 -1626.1 369.486 
4995 -1626.67 369.313 4995 -2126.37 163.909 4995 -2485.5 117.425 
4995 -2485.5 117.425 4672.96 -2495 103.752 4670.38 -2495 102.76 
4666.85 -2495 101.406 4665.82 -2495 101.009 4663.99 -2495 100.305 
4417.39 -2495 5.6136 4415.99 -2495 5.07368 4414.59 -2495 4.536 
4413.19 -2495 4.0006 4411.8 -2495 3.46746 4410.42 -2495 2.93654 
4409.04 -2495 2.40785 4407.67 -2495 1.88136 4406.31 -2495 1.35707 
4404.95 -2495 0.834944 4403.59 -2495 0.314996 4402.25 -2495 -0.202826 
4400.47 -2495 -0.535088 4398.69 -2495 -0.866472 4396.92 -2495 -1.19696 
4395.15 -2495 -1.5266 4393.39 -2495 -1.85536 4391.64 -2495 -2.18323 
4389.88 -2495 -2.51025 4388.14 -2495 -2.83641 4386.39 -2495 -3.16172 
4384.66 -2495 -3.48616 4368.22 -2495 -6.55524 4366.6 -2495 -6.85688 
4365 -2495 -7.15616 4363.4 -2495 -7.45468 4361.8 -2495 -7.75248 
4360.21 -2495 -8.04952 4358.62 -2495 -8.34588 4357.04 -2495 -8.64148 
4355.46 -2495 -8.93636 4353.88 -2495 -9.23052 4342.53 -2495 -11.3506 
4098.67 -2495 -56.8716 3734.85 -2495 -58.6144 3728.6 -2495 -58.6444 
3719.47 -2495 -58.688 3717.58 -2495 -58.6972 3715.69 -2495 -58.7064 
3713.8 -2495 -58.7152 3711.91 -2495 -58.7244 3710.02 -2495 -58.7336 
3708.14 -2495 -58.7424 3706.25 -2495 -58.7516 3705.09 -2495 -58.7572 
3494.17 -2495 -59.7676 2238.12 -2495 -15.4868 1254.51 -2495 50.644 
1073.37 -2495 30.5891 449.859 -2495 -250 73.5803 -2495 -419.332 
-724.262 -2461.19 -499.932 -724.262 -2461.19 -499.932 -797.698 -2220.56 -460.776 
-857.193 -2021.31 -416.776 -859.147 -2014.29 -415.12 -842.503 -1685.1 -270.303 
-797.946 -1420.31 -134.482 -797.93 -1318.61 -92.9192 -791.135 -870.383 72.2752 
-814.952 -694.931 123.881 -814.843 -694.177 124.207 -769.179 -379.983 260.176 
-774.356 -234.264 310.238 -774.832 -227.022 314.21 -831.604 77.0744 452.072 
-826.474 191.723 524.948 -763.739 641.204 610.228 -763.953 646.833 610.856 
-830.803 1305.82 771.148 -847.055 2095.74 830.876 -850.313 2183.49 840.524 
-850.313 2183.49 840.524 -746.175 2224.79 837.604 -667.253 2256.08 835.392 
-518.394 2398.29 840.144 -501.768 2429.74 842.348 -355.134 2384.65 904.2 
-199.494 2336.79 969.856 -132.023 2316.04 998.32 -53.0428 2300.83 1039.86 
44.4461 2312.26 1085.11 190.338 2340.14 1161.52 281.489 2357.55 1209.26 
320.934 2370.53 1228.94 329.473 2377.72 1232.41 423.297 2456.69 1270.57 
546.878 2566.83 1325 559.768 2569.06 1331.96 680.636 2542.21 1363.37 
769.224 2510.72 1378.06 920.325 2471.39 1399.82 933.284 2463.43 1398.33 
948.711 2453.97 1396.56 952.966 2457.69 1397.55 976.451 2478.24 1402.98 
1171.61 2549.44 1403.16 1209.07 2506.67 1416.12 1228.44 2456.85 1405.09 
1268.18 2425.91 1428.07 1281.8 2453.81 1433.47 1305.13 2501.59 1442.72 
1385.28 2638.47 1457.64 1487.53 2820.76 1481.41 1494.84 2833.8 1483.11 
1504.09 2820.65 1488.34 1523.05 2793.71 1499.05 1534.39 2820.45 1501.01 
1542.01 2838.4 1502.33 1554.82 2845.63 1506.93 1632.47 2889.42 1534.81 
1728.98 2951.67 1571.44 1836.86 2903.28 1633.85 1909.29 2759.46 1631.16 
2085.45 2409.67 1624.63 2089.88 2400.88 1624.46 2090.42 2398.76 1624.02 
2109.82 2322.33 1608.12 2191.99 2136.88 1561.58 2192.53 2135.67 1561.28 
2199.09 2075.36 1536.74 2238.21 1961.29 1477.35 2276.85 1870.74 1426.52 
2297.11 1836.19 1408.58 2395.89 1656.3 1318.38 2437.57 1580.41 1280.34 
2477.08 1508.46 1244.26 2482.3 1497.01 1239.02 2526 1356.72 1167.79 
2576.03 1290.57 1123.22 2597.43 1269.32 1109.88 2679.21 1065.24 1027.04 
2687.89 1054.83 1023.78 2885.07 977.194 978.728 2914.26 965.7 972.056 
2924.54 961.653 969.708 3002.97 929.655 951.096 3147.29 814.249 906.768 
3147.55 814.23 906.828 3209.85 818.411 921.168 3267.81 818.084 934.544 
3348.63 817.628 953.204 3474.42 819.3 982.216 3527.4 820.004 994.436 
3544.65 832.025 1007.15 3658.92 890.629 1088.4 3684.45 903.722 1106.56 
3791.57 917.382 1176.9 3818.97 912.318 1186.38 3819.41 912.283 1186.52 
3963.78 900.612 1232.24 4246.83 985.629 1291.36 4441.84 1044.2 1332.1 
4468.71 1046.16 1339.44 4596.99 972.989 1319.84 4604.16 968.897 1318.74 
4708.67 872.863 1278.63 4763.54 806.754 1247.18 4775.84 791.947 1240.14 
4884.08 567.59 1193.38 4900.66 533.226 1186.22 -375.236 1250 706.816 
-830.803 1305.82 771.148 -580.283 625 688.38 -763.953 646.833 610.856 
-763.739 641.204 610.228 -830.803 1305.82 771.148 -375.236 1250 706.816 
-847.055 2095.74 830.876 -850.313 2183.49 840.524 73.1667 1875 742.232 
462.985 1250 884.968 572.435 1875 847.248 1266.43 1250 912.76 
1274.06 1875 1081.88 1630.08 1875 1393.05 1523.05 2793.71 1499.05 
2022.24 1875 1362.54 1534.39 2820.45 1501.01 1542.01 2838.4 1502.33 
-163.905 -1250 79.482 -111.937 -1875 -175.13 281.06 -1875 -37.584 
73.5803 -2495 -419.332 449.859 -2495 -250 2276.85 1870.74 1426.52 
2238.21 1961.29 1477.35 2022.24 1875 1362.54 2199.09 2075.36 1536.74 
2191.99 2136.88 1561.58 2192.53 2135.67 1561.28 393.04 625 874.744 
1026.62 625 770.412 1266.43 1250 912.76 1534.76 625 766.124 
1912.62 1250 1102.52 2045.2 625 819.908 2397.04 1250 1057.34 
2419.92 625 754.74 2679.21 1065.24 1027.04 2687.89 1054.83 1023.78 
4358.62 -2495 -8.34588 4360.21 -2495 -8.04952 4327.35 -1875 129.537 
4361.8 -2495 -7.75248 4363.4 -2495 -7.45468 -850.313 2183.49 840.524 
-375.236 1250 706.816 -746.175 2224.79 837.604 -667.253 2256.08 835.392 
4468.71 1046.16 1339.44 4441.84 1044.2 1332.1 4596.99 972.989 1319.84 
3863.41 625 924.176 4604.16 968.897 1318.74 4602.06 0 676.32 
4708.67 872.863 1278.63 4763.54 806.754 1247.18 976.451 2478.24 1402.98 
952.966 2457.69 1397.55 1274.06 1875 1081.88 948.711 2453.97 1396.56 
572.435 1875 847.248 933.284 2463.43 1398.33 920.325 2471.39 1399.82 
1250.36 -625 443.388 1251.16 0 574.52 419.363 0 898.088 
1026.62 625 770.412 393.04 625 874.744 1523.05 2793.71 1499.05 
1504.09 2820.65 1488.34 1274.06 1875 1081.88 1494.84 2833.8 1483.11 
1487.53 2820.76 1481.41 1281.8 2453.81 1433.47 1268.18 2425.91 1428.07 
1274.06 1875 1081.88 1228.44 2456.85 1405.09 1209.07 2506.67 1416.12 
4366.6 -2495 -6.85688 4368.22 -2495 -6.55524 4327.35 -1875 129.537 
4384.66 -2495 -3.48616 4386.39 -2495 -3.16172 1254.51 -2495 50.644 
2238.12 -2495 -15.4868 2453.81 -1250 217.116 3220.02 -1875 69.0536 
4265.41 -1250 265.456 4327.35 -1875 129.537 4701.81 -1264.32 351.362 
4753.27 -1881.82 186.222 4995 -1626.67 369.313 4995 -2126.37 163.909 
680.636 2542.21 1363.37 559.768 2569.06 1331.96 572.435 1875 847.248 
546.878 2566.83 1325 423.297 2456.69 1270.57 1632.47 2889.42 1534.81 
1554.82 2845.63 1506.93 2022.24 1875 1362.54 1542.01 2838.4 1502.33 
4666.85 -2495 101.406 4670.38 -2495 102.76 4753.27 -1881.82 186.222 
4672.96 -2495 103.752 4995 -2126.37 163.909 4995 -2485.5 117.425 
3544.65 832.025 1007.15 3527.4 820.004 994.436 3863.41 625 924.176 
3474.42 819.3 982.216 3348.63 817.628 953.204 3715.69 -2495 -58.7064 
3717.58 -2495 -58.6972 4327.35 -1875 129.537 3719.47 -2495 -58.688 
3728.6 -2495 -58.6444 4629.62 -625 536.652 4602.06 0 676.32 
4141.53 0 537.292 3863.41 625 924.176 3143.29 625 765.164 
3348.63 817.628 953.204 3267.81 818.084 934.544 -791.135 -870.383 72.2752 
-797.93 -1318.61 -92.9192 -523.453 -1250 67.2212 -590.05 -1875 -191.296 
-111.937 -1875 -175.13 -797.698 -2220.56 -460.776 -724.262 -2461.19 -499.932 
4389.88 -2495 -2.51025 4391.64 -2495 -2.18323 4327.35 -1875 129.537 
4393.39 -2495 -1.85536 4395.15 -2495 -1.5266 3544.65 832.025 1007.15 
3863.41 625 924.176 3658.92 890.629 1088.4 3684.45 903.722 1106.56 
-797.698 -2220.56 -460.776 -590.05 -1875 -191.296 -857.193 -2021.31 -416.776 
-842.503 -1685.1 -270.303 -859.147 -2014.29 -415.12 419.363 0 898.088 
711.356 -1250 448.428 1250.36 -625 443.388 938.036 -1875 135.122 
2453.81 -1250 217.116 1254.51 -2495 50.644 -111.937 -1875 -175.13 
-163.905 -1250 79.482 -523.453 -1250 67.2212 -456.855 -625 325.738 
-814.843 -694.177 124.207 -769.179 -379.983 260.176 4884.08 567.59 1193.38 
4775.84 791.947 1240.14 4602.06 0 676.32 4763.54 806.754 1247.18 
4884.08 567.59 1193.38 4602.06 0 676.32 4896.91 -231.439 759.516 
4629.62 -625 536.652 4701.81 -1264.32 351.362 4265.41 -1250 265.456 
2045.2 625 819.908 1534.76 625 766.124 1251.16 0 574.52 
1026.62 625 770.412 2453.81 -1250 217.116 2177.79 0 537.292 
1250.36 -625 443.388 1251.16 0 574.52 -826.474 191.723 524.948 
-831.604 77.0744 452.072 -568.319 0 613.192 -774.832 -227.022 314.21 
-456.855 -625 325.738 -774.356 -234.264 310.238 -769.179 -379.983 260.176 
1909.29 2759.46 1631.16 1728.98 2951.67 1571.44 2022.24 1875 1362.54 
1632.47 2889.42 1534.81 4404.95 -2495 0.834944 4406.31 -2495 1.35707 
4753.27 -1881.82 186.222 4407.67 -2495 1.88136 4409.04 -2495 2.40785 
3818.97 912.318 1186.38 3791.57 917.382 1176.9 3863.41 625 924.176 
3684.45 903.722 1106.56 4995 -1626.67 369.313 4995 -1626.1 369.486 
4701.81 -1264.32 351.362 4994.73 -1598.45 377.768 4993.06 -1430.57 429.252 
4342.53 -2495 -11.3506 4353.88 -2495 -9.23052 4327.35 -1875 129.537 
4355.46 -2495 -8.93636 4357.04 -2495 -8.64148 423.297 2456.69 1270.57 
329.473 2377.72 1232.41 572.435 1875 847.248 320.934 2370.53 1228.94 
281.489 2357.55 1209.26 1281.8 2453.81 1433.47 1274.06 1875 1081.88 
1305.13 2501.59 1442.72 1385.28 2638.47 1457.64 4386.39 -2495 -3.16172 
4388.14 -2495 -2.83641 4327.35 -1875 129.537 4389.88 -2495 -2.51025 
4395.15 -2495 -1.5266 4396.92 -2495 -1.19696 4327.35 -1875 129.537 
4398.69 -2495 -0.866472 4400.47 -2495 -0.535088 3147.55 814.23 906.828 
3147.29 814.249 906.768 3143.29 625 765.164 3002.97 929.655 951.096 
2924.54 961.653 969.708 73.1667 1875 742.232 -4.8217 1250 721.224 
462.985 1250 884.968 -114.502 625 661.824 393.04 625 874.744 
419.363 0 898.088 44.4461 2312.26 1085.11 -53.0428 2300.83 1039.86 
73.1667 1875 742.232 -132.023 2316.04 998.32 -199.494 2336.79 969.856 
4400.47 -2495 -0.535088 4402.25 -2495 -0.202826 4327.35 -1875 129.537 
4753.27 -1881.82 186.222 4141.53 0 537.292 3143.29 625 765.164 
2177.79 0 537.292 2419.92 625 754.74 2045.2 625 819.908 
2687.89 1054.83 1023.78 2419.92 625 754.74 2885.07 977.194 978.728 
3143.29 625 765.164 2914.26 965.7 972.056 2924.54 961.653 969.708 
2597.43 1269.32 1109.88 2576.03 1290.57 1123.22 2397.04 1250 1057.34 
2526 1356.72 1167.79 2482.3 1497.01 1239.02 -355.134 2384.65 904.2 
-501.768 2429.74 842.348 73.1667 1875 742.232 -518.394 2398.29 840.144 
-667.253 2256.08 835.392 3147.55 814.23 906.828 3143.29 625 765.164 
3209.85 818.411 921.168 3267.81 818.084 934.544 4411.8 -2495 3.46746 
4413.19 -2495 4.0006 4753.27 -1881.82 186.222 4414.59 -2495 4.536 
4415.99 -2495 5.07368 -580.283 625 688.38 -763.739 641.204 610.228 
-568.319 0 613.192 -826.474 191.723 524.948 4663.99 -2495 100.305 
4665.82 -2495 101.009 4753.27 -1881.82 186.222 4666.85 -2495 101.406 
-375.236 1250 706.816 -580.283 625 688.38 -114.502 625 661.824 
-568.319 0 613.192 419.363 0 898.088 -456.855 -625 325.738 
-163.905 -1250 79.482 -797.93 -1318.61 -92.9192 -797.946 -1420.31 -134.482 
-590.05 -1875 -191.296 -842.503 -1685.1 -270.303 4366.6 -2495 -6.85688 
4327.35 -1875 129.537 4365 -2495 -7.15616 4363.4 -2495 -7.45468 
3494.17 -2495 -59.7676 3705.09 -2495 -58.7572 4327.35 -1875 129.537 
3706.25 -2495 -58.7516 3708.14 -2495 -58.7424 -791.135 -870.383 72.2752 
-523.453 -1250 67.2212 -814.952 -694.931 123.881 -814.843 -694.177 124.207 
4342.53 -2495 -11.3506 4327.35 -1875 129.537 4098.67 -2495 -56.8716 
3734.85 -2495 -58.6144 3818.97 912.318 1186.38 3863.41 625 924.176 
3819.41 912.283 1186.52 3963.78 900.612 1232.24 1909.29 2759.46 1631.16 
2022.24 1875 1362.54 2085.45 2409.67 1624.63 2109.82 2322.33 1608.12 
2090.42 2398.76 1624.02 3710.02 -2495 -58.7336 3711.91 -2495 -58.7244 
4327.35 -1875 129.537 3713.8 -2495 -58.7152 3715.69 -2495 -58.7064 
4415.99 -2495 5.07368 4417.39 -2495 5.6136 4753.27 -1881.82 186.222 
4663.99 -2495 100.305 4629.62 -625 536.652 4141.53 0 537.292 
4265.41 -1250 265.456 2177.79 0 537.292 2453.81 -1250 217.116 
1912.62 1250 1102.52 2397.04 1250 1057.34 2022.24 1875 1362.54 
2477.08 1508.46 1244.26 2437.57 1580.41 1280.34 4884.08 567.59 1193.38 
4896.91 -231.439 759.516 4900.66 533.226 1186.22 419.363 0 898.088 
-163.905 -1250 79.482 711.356 -1250 448.428 281.06 -1875 -37.584 
938.036 -1875 135.122 1073.37 -2495 30.5891 1254.51 -2495 50.644 
2437.57 1580.41 1280.34 2395.89 1656.3 1318.38 2022.24 1875 1362.54 
2297.11 1836.19 1408.58 2276.85 1870.74 1426.52 680.636 2542.21 1363.37 
572.435 1875 847.248 769.224 2510.72 1378.06 920.325 2471.39 1399.82 
281.489 2357.55 1209.26 190.338 2340.14 1161.52 73.1667 1875 742.232 
44.4461 2312.26 1085.11 2482.3 1497.01 1239.02 2477.08 1508.46 1244.26 
2397.04 1250 1057.34 3728.6 -2495 -58.6444 3734.85 -2495 -58.6144 
4327.35 -1875 129.537 1266.43 1250 912.76 1912.62 1250 1102.52 
1630.08 1875 1393.05 2022.24 1875 1362.54 281.489 2357.55 1209.26 
73.1667 1875 742.232 572.435 1875 847.248 1209.07 2506.67 1416.12 
1171.61 2549.44 1403.16 1274.06 1875 1081.88 976.451 2478.24 1402.98 
1909.29 2759.46 1631.16 1836.86 2903.28 1633.85 1728.98 2951.67 1571.44 
2090.42 2398.76 1624.02 2089.88 2400.88 1624.46 2085.45 2409.67 1624.63 
-114.502 625 661.824 -4.8217 1250 721.224 -375.236 1250 706.816 
73.1667 1875 742.232 -667.253 2256.08 835.392 4441.84 1044.2 1332.1 
4246.83 985.629 1291.36 3863.41 625 924.176 3963.78 900.612 1232.24 
4404.95 -2495 0.834944 4753.27 -1881.82 186.222 4403.59 -2495 0.314996 
4402.25 -2495 -0.202826 4411.8 -2495 3.46746 4753.27 -1881.82 186.222 
4410.42 -2495 2.93654 4409.04 -2495 2.40785 1487.53 2820.76 1481.41 
1385.28 2638.47 1457.64 1274.06 1875 1081.88 4327.35 -1875 129.537 
3220.02 -1875 69.0536 3494.17 -2495 -59.7676 2238.12 -2495 -15.4868 
2177.79 0 537.292 2045.2 625 819.908 1251.16 0 574.52 
2191.99 2136.88 1561.58 2109.82 2322.33 1608.12 2022.24 1875 1362.54 
-724.262 -2461.19 -499.932 73.5803 -2495 -419.332 -111.937 -1875 -175.13 
462.985 1250 884.968 393.04 625 874.744 1266.43 1250 912.76 
4357.04 -2495 -8.64148 4358.62 -2495 -8.34588 4327.35 -1875 129.537 
4993.06 -1430.57 429.252 4896.91 -231.439 759.516 4701.81 -1264.32 351.362 
2679.21 1065.24 1027.04 2597.43 1269.32 1109.88 2397.04 1250 1057.34 
-199.494 2336.79 969.856 -355.134 2384.65 904.2 73.1667 1875 742.232 
449.859 -2495 -250 1073.37 -2495 30.5891 281.06 -1875 -37.584 
3708.14 -2495 -58.7424 3710.02 -2495 -58.7336 4327.35 -1875 129.537 

LINES 171 513
2 0 1 
2 1 2 
2 3 4 
2 4 5 
2 5 6 
2 6 7 
2 7 8 
2 9 10 
2 10 11 
2 11 12 
2 12 13 
2 13 14 
2 14 15 
2 15 16 
2 16 17 
2 17 18 
2 18 19 
2 19 20 
2 20 21 
2 21 22 
2 22 23 
2 23 24 
2 24 25 
2 25 26 
2 26 27 
2 27 28 
2 28 29 
2 29 30 
2 30 31 
2 31 32 
2 32 33 
2 33 34 
2 34 35 
2 35 36 
2 36 37 
2 37 38 
2 38 39 
2 39 40 
2 40 41 
2 41 42 
2 42 43 
2 43 44 
2 44 45 
2 45 46 
2 46 47 
2 47 48 
2 48 49 
2 49 50 
2 50 51 
2 51 52 
2 52 53 
2 53 54 
2 54 55 
2 55 56 
2 56 57 
2 57 58 
2 58 59 
2 59 60 
2 60 61 
2 61 62 
2 62 63 
2 63 64 
2 64 65 
2 65 66 
2 67 68 
2 68 69 
2 69 70 
2 70 71 
2 71 72 
2 72 73 
2 73 74 
2 74 75 
2 75 76 
2 76 77 
2 77 78 
2 78 79 
2 79 80 
2 80 81 
2 81 82 
2 82 83 
2 83 84 
2 84 85 
2 85 86 
2 87 88 
2 88 89 
2 89 90 
2 90 91 
2 91 92 
2 92 93 
2 93 94 
2 94 95 
2 95 96 
2 96 97 
2 97 98 
2 98 99 
2 99 100 
2 100 101 
2 101 102 
2 102 103 
2 103 104 
2 104 105 
2 105 106 
2 106 107 
2 107 108 
2 108 109 
2 109 110 
2 110 111 
2 111 112 
2 112 113 
2 113 114 
2 114 115 
2 115 116 
2 116 117 
2 117 118 
2 118 119 
2 119 120 
2 120 121 
2 121 122 
2 122 123 
2 123 124 
2 124 125 
2 125 126 
2 126 127 
2 127 128 
2 128 129 
2 129 130 
2 130 131 
2 131 132 
2 132 133 
2 133 134 
2 134 135 
2 135 136 
2 136 137 
2 137 138 
2 138 139 
2 139 140 
2 140 141 
2 141 142 
2 142 143 
2 143 144 
2 144 145 
2 145 146 
2 146 147 
2 147 148 
2 148 149 
2 149 150 
2 150 151 
2 151 152 
2 152 153 
2 153 154 
2 154 155 
2 155 156 
2 156 157 
2 157 158 
2 158 159 
2 159 160 
2 160 161 
2 161 162 
2 162 163 
2 163 164 
2 164 165 
2 165 166 
2 166 167 
2 167 168 
2 168 169 
2 169 170 
2 170 171 
2 171 172 
2 172 173 
2 173 174 
2 174 175 

POLYGONS 253 1012
3 176 177 178 
3 177 178 179 
3 178 179 180 
3 181 182 183 
3 182 183 184 
3 185 186 187 
3 186 187 188 
3 187 188 189 
3 188 189 190 
3 189 190 191 
3 190 191 192 
3 191 192 193 
3 192 193 194 
3 195 196 197 
3 196 197 198 
3 197 198 199 
3 200 201 202 
3 201 202 203 
3 202 203 204 
3 203 204 205 
3 206 207 208 
3 207 208 209 
3 208 209 210 
3 209 210 211 
3 210 211 212 
3 211 212 213 
3 212 213 214 
3 213 214 215 
3 216 217 218 
3 217 218 219 
3 218 219 220 
3 221 222 223 
3 222 223 224 
3 225 226 227 
3 226 227 228 
3 227 228 229 
3 228 229 230 
3 229 230 231 
3 230 231 232 
3 233 234 235 
3 234 235 236 
3 235 236 237 
3 236 237 238 
3 237 238 239 
3 240 241 242 
3 241 242 243 
3 242 243 244 
3 245 246 247 
3 246 247 248 
3 247 248 249 
3 250 251 252 
3 251 252 253 
3 252 253 254 
3 255 256 257 
3 256 257 258 
3 257 258 259 
3 260 261 262 
3 261 262 263 
3 262 263 264 
3 263 264 265 
3 264 265 266 
3 265 266 267 
3 266 267 268 
3 267 268 269 
3 270 271 272 
3 271 272 273 
3 272 273 274 
3 275 276 277 
3 276 277 278 
3 279 280 281 
3 280 281 282 
3 281 282 283 
3 282 283 284 
3 285 286 287 
3 286 287 288 
3 287 288 289 
3 290 291 292 
3 291 292 293 
3 292 293 294 
3 295 296 297 
3 296 297 298 
3 297 298 299 
3 298 299 300 
3 299 300 301 
3 302 303 304 
3 303 304 305 
3 304 305 306 
3 305 306 307 
3 306 307 308 
3 309 310 311 
3 310 311 312 
3 311 312 313 
3 314 315 316 
3 315 316 317 
3 318 319 320 
3 319 320 321 
3 320 321 322 
3 323 324 325 
3 324 325 326 
3 325 326 327 
3 326 327 328 
3 329 330 331 
3 330 331 332 
3 331 332 333 
3 332 333 334 
3 335 336 337 
3 336 337 338 
3 339 340 341 
3 340 341 342 
3 341 342 343 
3 342 343 344 
3 345 346 347 
3 346 347 348 
3 349 350 351 
3 350 351 352 
3 353 354 355 
3 354 355 356 
3 355 356 357 
3 356 357 358 
3 357 358 359 
3 360 361 362 
3 361 362 363 
3 364 365 366 
3 365 366 367 
3 366 367 368 
3 369 370 371 
3 370 371 372 
3 373 374 375 
3 374 375 376 
3 375 376 377 
3 378 379 380 
3 379 380 381 
3 380 381 382 
3 383 384 385 
3 384 385 386 
3 385 386 387 
3 388 389 390 
3 389 390 391 
3 392 393 394 
3 393 394 395 
3 396 397 398 
3 397 398 399 
3 398 399 400 
3 401 402 403 
3 402 403 404 
3 403 404 405 
3 406 407 408 
3 407 408 409 
3 408 409 410 
3 409 410 411 
3 412 413 414 
3 413 414 415 
3 414 415 416 
3 417 418 419 
3 418 419 420 
3 421 422 423 
3 422 423 424 
3 423 424 425 
3 426 427 428 
3 427 428 429 
3 428 429 430 
3 429 430 431 
3 432 433 434 
3 433 434 435 
3 434 435 436 
3 437 438 439 
3 438 439 440 
3 439 440 441 
3 442 443 444 
3 443 444 445 
3 446 447 448 
3 447 448 449 
3 448 449 450 
3 451 452 453 
3 452 453 454 
3 455 456 457 
3 456 457 458 
3 459 460 461 
3 460 461 462 
3 461 462 463 
3 462 463 464 
3 463 464 465 
3 466 467 468 
3 467 468 469 
3 470 471 472 
3 471 472 473 
3 474 475 476 
3 475 476 477 
3 476 477 478 
3 479 480 481 
3 480 481 482 
3 483 484 485 
3 484 485 486 
3 487 488 489 
3 488 489 490 
3 491 492 493 
3 492 493 494 
3 493 494 495 
3 496 497 498 
3 497 498 499 
3 498 499 500 
3 501 502 503 
3 502 503 504 
3 505 506 507 
3 506 507 508 
3 507 508 509 
3 510 511 512 
3 511 512 513 
3 512 513 514 
3 515 516 517 
3 518 519 520 
3 519 520 521 
3 520 521 522 
3 521 522 523 
3 522 523 524 
3 525 526 527 
3 526 527 528 
3 527 528 529 
3 530 531 532 
3 531 532 533 
3 534 535 536 
3 535 536 537 
3 538 539 540 
3 541 542 543 
3 544 545 546 
3 545 546 547 
3 548 549 550 
3 551 552 553 
3 552 553 554 
3 555 556 557 
3 558 559 560 
3 561 562 563 
3 562 563 564 
3 563 564 565 
3 566 567 568 
3 567 568 569 
3 570 571 572 
3 571 572 573 
3 574 575 576 
3 575 576 577 
3 578 579 580 
3 581 582 583 
3 582 583 584 
3 585 586 587 
3 588 589 590 
3 591 592 593 
3 594 595 596 
3 597 598 599 
3 600 601 602 
3 603 604 605 
3 606 607 608 
3 609 610 611 
3 612 613 614 

POINT_DATA 615
COLOR_SCALARS VRMLColor 3
1 1 1 1 1 1 1 1 1 
1 1 1 1 1 1 
1 1 1 1 1 1 
1 1 1 1 1 1 
1 1 1 1 1 1 
1 1 1 1 1 1 
1 1 1 1 1 1 
1 1 1 1 1 1 
1 1 1 1 1 1 
1 1 1 1 1 1 
1 1 1 1 1 1 
1 1 1 1 1 1 
1 1 1 1 1 1 
1 1 1 1 1 1 
1 1 1 1 1 1 
1 1 1 1 1 1 
1 1 1 1 1 1 
1 1 1 1 1 1 
1 1 1 1 1 1 
1 1 1 1 1 1 
1 1 1 1 1 1 
1 1 1 1 1 1 
1 1 1 1 1 1 
1 1 1 1 1 1 
1 1 1 1 1 1 
1 1 1 1 1 1 
1 1 1 1 1 1 
1 1 1 1 1 1 
1 1 1 1 1 1 
1 1 1 1 1 1 
1 1 1 1 1 1 
1 1 1 1 1 1 
1 1 1 1 1 1 
1 1 1 1 1 1 
1 1 1 1 1 1 
1 1 1 1 1 1 
1 1 1 1 1 1 
1 1 1 1 1 1 
1 1 1 1 1 1 
1 1 1 1 1 1 
1 1 1 1 1 1 
1 1 1 1 1 1 
1 1 1 1 1 1 
1 1 1 1 1 1 
1 1 1 1 1 1 
1 1 1 1 1 1 
1 1 1 1 1 1 
1 1 1 1 1 1 
1 1 1 1 1 1 
1 1 1 1 1 1 
1 1 1 1 1 1 
1 1 1 1 1 1 
1 1 1 1 1 1 
1 1 1 1 1 1 
1 1 1 1 1 1 
1 1 1 1 1 1 
1 1 1 1 1 1 
1 1 1 1 1 1 
1 1 1 1 1 1 
1 1 1 1 1 1 
1 1 1 1 1 1 
1 1 1 1 1 1 
1 1 1 1 1 1 
1 1 1 1 1 1 
1 1 1 1 1 1 
1 1 1 1 1 1 
1 1 1 1 1 1 
1 1 1 1 1 1 
1 1 1 1 1 1 
1 1 1 1 1 1 
1 1 1 1 1 1 
1 1 1 1 1 1 
1 1 1 1 1 1 
1 1 1 1 1 1 
1 1 1 1 1 1 
1 1 1 1 1 1 
1 1 1 1 1 1 
1 1 1 1 1 1 
1 1 1 1 1 1 
1 1 1 1 1 1 
1 1 1 1 1 1 
1 1 1 1 1 1 
1 1 1 1 1 1 
1 1 1 1 1 1 
1 1 1 1 1 1 
1 1 1 1 1 1 
1 1 1 1 1 1 
1 1 1 0.87451 0.87451 0.87451 
0.87451 0.87451 0.87451 0.87451 0.87451 0.87451 
0.87451 0.87451 0.87451 0.87451 0.87451 0.87451 
0.87451 0.87451 0.87451 0.87451 0.87451 0.87451 
0.87451 0.87451 0.87451 0.87451 0.87451 0.87451 
0.87451 0.87451 0.87451 0.87451 0.87451 0.87451 
0.87451 0.87451 0.87451 0.87451 0.87451 0.87451 
0.87451 0.87451 0.87451 0.87451 0.87451 0.87451 
0.87451 0.87451 0.87451 0.87451 0.87451 0.87451 
0.87451 0.87451 0.87451 0.87451 0.87451 0.87451 
0.87451 0.87451 0.87451 0.87451 0.87451 0.87451 
0.87451 0.87451 0.87451 0.87451 0.87451 0.87451 
0.87451 0.87451 0.87451 0.87451 0.87451 0.87451 
0.87451 0.87451 0.87451 0.87451 0.87451 0.87451 
0.87451 0.87451 0.87451 0.87451 0.87451 0.87451 
0.87451 0.87451 0.87451 0.87451 0.87451 0.87451 
0.87451 0.87451 0.87451 0.87451 0.87451 0.87451 
0.87451 0.87451 0.87451 0.87451 0.87451 0.87451 
0.87451 0.87451 0.87451 0.87451 0.87451 0.87451 
0.87451 0.87451 0.87451 0.87451 0.87451 0.87451 
0.87451 0.87451 0.87451 0.87451 0.87451 0.87451 
0.87451 0.87451 0.87451 0.87451 0.87451 0.87451 
0.87451 0.87451 0.87451 0.87451 0.87451 0.87451 
0.87451 0.87451 0.87451 0.87451 0.87451 0.87451 
0.87451 0.87451 0.87451 0.87451 0.87451 0.87451 
0.87451 0.87451 0.87451 0.87451 0.87451 0.87451 
0.87451 0.87451 0.87451 0.87451 0.87451 0.87451 
0.87451 0.87451 0.87451 0.87451 0.87451 0.87451 
0.87451 0.87451 0.87451 0.87451 0.87451 0.87451 
0.87451 0.87451 0.87451 0.87451 0.87451 0.87451 
0.87451 0.87451 0.87451 0.87451 0.87451 0.87451 
0.87451 0.87451 0.87451 0.87451 0.87451 0.87451 
0.87451 0.87451 0.87451 0.87451 0.87451 0.87451 
0.87451 0.87451 0.87451 0.87451 0.87451 0.87451 
0.87451 0.87451 0.87451 0.87451 0.87451 0.87451 
0.87451 0.87451 0.87451 0.87451 0.87451 0.87451 
0.87451 0.87451 0.87451 0.87451 0.87451 0.87451 
0.87451 0.87451 0.87451 0.87451 0.87451 0.87451 
0.87451 0.87451 0.87451 0.87451 0.87451 0.87451 
0.87451 0.87451 0.87451 0.87451 0.87451 0.87451 
0.87451 0.87451 0.87451 0.87451 0.87451 0.87451 
0.87451 0.87451 0.87451 0.87451 0.87451 0.87451 
0.87451 0.87451 0.87451 0.87451 0.87451 0.87451 
0.87451 0.87451 0.87451 0.87451 0.87451 0.87451 
0.87451 0.87451 0.87451 0.87451 0.87451 0.87451 
0.87451 0.87451 0.87451 0.87451 0.87451 0.87451 
0.87451 0.87451 0.87451 0.87451 0.87451 0.87451 
0.87451 0.87451 0.87451 0.87451 0.87451 0.87451 
0.87451 0.87451 0.87451 0.87451 0.87451 0.87451 
0.87451 0.87451 0.87451 0.87451 0.87451 0.87451 
0.87451 0.87451 0.87451 0.87451 0.87451 0.87451 
0.87451 0.87451 0.87451 0.87451 0.87451 0.87451 
0.87451 0.87451 0.87451 0.87451 0.87451 0.87451 
0.87451 0.87451 0.87451 0.87451 0.87451 0.87451 
0.87451 0.87451 0.87451 0.87451 0.87451 0.87451 
0.87451 0.87451 0.87451 0.87451 0.87451 0.87451 
0.87451 0.87451 0.87451 0.87451 0.87451 0.87451 
0.87451 0.87451 0.87451 0.87451 0.87451 0.87451 
0.87451 0.87451 0.87451 0.87451 0.87451 0.87451 
0.87451 0.87451 0.87451 0.87451 0.87451 0.87451 
0.87451 0.87451 0.87451 0.87451 0.87451 0.87451 
0.87451 0.87451 0.87451 0.87451 0.87451 0.87451 
0.87451 0.87451 0.87451 0.87451 0.87451 0.87451 
0.87451 0.87451 0.87451 0.87451 0.87451 0.87451 
0.87451 0.87451 0.87451 0.87451 0.87451 0.87451 
0.87451 0.87451 0.87451 0.87451 0.87451 0.87451 
0.87451 0.87451 0.87451 0.87451 0.87451 0.87451 
0.87451 0.87451 0.87451 0.87451 0.87451 0.87451 
0.87451 0.87451 0.87451 0.87451 0.87451 0.87451 
0.87451 0.87451 0.87451 0.87451 0.87451 0.87451 
0.87451 0.87451 0.87451 0.87451 0.87451 0.87451 
0.87451 0.87451 0.87451 0.87451 0.87451 0.87451 
0.87451 0.87451 0.87451 0.87451 0.87451 0.87451 
0.87451 0.87451 0.87451 0.87451 0.87451 0.87451 
0.87451 0.87451 0.87451 0.87451 0.87451 0.87451 
0.87451 0.87451 0.87451 0.87451 0.87451 0.87451 
0.87451 0.87451 0.87451 0.87451 0.87451 0.87451 
0.87451 0.87451 0.87451 0.87451 0.87451 0.87451 
0.87451 0.87451 0.87451 0.87451 0.87451 0.87451 
0.87451 0.87451 0.87451 0.87451 0.87451 0.87451 
0.87451 0.87451 0.87451 0.87451 0.87451 0.87451 
0.87451 0.87451 0.87451 0.87451 0.87451 0.87451 
0.87451 0.87451 0.87451 0.87451 0.87451 0.87451 
0.87451 0.87451 0.87451 0.87451 0.87451 0.87451 
0.87451 0.87451 0.87451 0.87451 0.87451 0.87451 
0.87451 0.87451 0.87451 0.87451 0.87451 0.87451 
0.87451 0.87451 0.87451 0.87451 0.87451 0.87451 
0.87451 0.87451 0.87451 0.87451 0.87451 0.87451 
0.87451 0.87451 0.87451 0.87451 0.87451 0.87451 
0.87451 0.87451 0.87451 0.87451 0.87451 0.87451 
0.87451 0.87451 0.87451 0.87451 0.87451 0.87451 
0.87451 0.87451 0.87451 0.87451 0.87451 0.87451 
0.87451 0.87451 0.87451 0.87451 0.87451 0.87451 
0.87451 0.87451 0.87451 0.87451 0.87451 0.87451 
0.87451 0.87451 0.87451 0.87451 0.87451 0.87451 
0.87451 0.87451 0.87451 0.87451 0.87451 0.87451 
0.87451 0.87451 0.87451 0.87451 0.87451 0.87451 
0.87451 0.87451 0.87451 0.87451 0.87451 0.87451 
0.87451 0.87451 0.87451 0.87451 0.87451 0.87451 
0.87451 0.87451 0.87451 0.87451 0.87451 0.87451 
0.87451 0.87451 0.87451 0.87451 0.87451 0.87451 
0.87451 0.87451 0.87451 0.87451 0.87451 0.87451 
0.87451 0.87451 0.87451 0.87451 0.87451 0.87451 
0.87451 0.87451 0.87451 0.87451 0.87451 0.87451 
0.87451 0.87451 0.87451 0.87451 0.87451 0.87451 
0.87451 0.87451 0.87451 0.87451 0.87451 0.87451 
0.87451 0.87451 0.87451 0.87451 0.87451 0.87451 
0.87451 0.87451 0.87451 0.87451 0.87451 0.87451 
0.87451 0.87451 0.87451 0.87451 0.87451 0.87451 
0.87451 0.87451 0.87451 0.87451 0.87451 0.87451 
0.87451 0.87451 0.87451 0.87451 0.87451 0.87451 
0.87451 0.87451 0.87451 0.87451 0.87451 0.87451 
0.87451 0.87451 0.87451 0.87451 0.87451 0.87451 
0.87451 0.87451 0.87451 0.87451 0.87451 0.87451 
0.87451 0.87451 0.87451 0.87451 0.87451 0.87451 
0.87451 0.87451 0.87451 0.87451 0.87451 0.87451 
0.87451 0.87451 0.87451 0.87451 0.87451 0.87451 
0.87451 0.87451 0.87451 0.87451 0.87451 0.87451 
0.87451 0.87451 0.87451 0.87451 0.87451 0.87451 
0.87451 0.87451 0.87451 0.87451 0.87451 0.87451 
0.87451 0.87451 0.87451 0.87451 0.87451 0.87451 
0.87451 0.87451 0.87451 0.87451 0.87451 0.87451 
0.87451 0.87451 0.87451 0.87451 0.87451 0.87451 
0.87451 0.87451 0.87451 0.87451 0.87451 0.87451 
0.87451 0.87451 0.87451 0.87451 0.87451 0.87451 
0.87451 0.87451 0.87451 0.87451 0.87451 0.87451 
0.87451 0.87451 0.87451 0.87451 0.87451 0.87451 
0.87451 0.87451 0.87451 0.87451 0.87451 0.87451 
0.87451 0.87451 0.87451 0.87451 0.87451 0.87451 
0.87451 0.87451 0.87451 0.87451 0.87451 0.87451 
0.87451 0.87451 0.87451 0.87451 0.87451 0.87451 
0.87451 0.87451 0.87451 0.87451 0.87451 0.87451 
0.87451 0.87451 0.87451 0.87451 0.87451 0.87451 
0.87451 0.87451 0.87451 0.87451 0.87451 0.87451 
0.87451 0.87451 0.87451 0.87451 0.87451 0.87451 
0.87451 0.87451 0.87451 0.87451 0.87451 0.87451 
0.87451 0.87451 0.87451 0.87451 0.87451 0.87451 
0.87451 0.87451 0.87451 0.87451 0.87451 0.87451 
0.87451 0.87451 0.87451 0.87451 0.87451 0.87451 
0.87451 0.87451 0.87451 0.87451 0.87451 0.87451 
0.87451 0.87451 0.87451 0.87451 0.87451 0.87451 
0.87451 0.87451 0.87451 0.87451 0.87451 0.87451 
0.87451 0.87451 0.87451 0.87451 0.87451 0.87451 
0.87451 0.87451 0.87451 0.87451 0.87451 0.87451 
0.87451 0.87451 0.87451 0.87451 0.87451 0.87451 
0.87451 0.87451 0.87451 0.87451 0.87451 0.87451 
0.87451 0.87451 0.87451 0.87451 0.87451 0.87451 
0.87451 0.87451 0.87451 0.87451 0.87451 0.87451 
0.87451 0.87451 0.87451 0.87451 0.87451 0.87451 
0.87451 0.87451 0.87451 0.87451 0.87451 0.87451 
0.87451 0.87451 0.87451 0.87451 0.87451 0.87451 
0.87451 0.87451 0.87451 0.87451 0.87451 0.87451 
0.87451 0.87451 0.87451 0.87451 0.87451 0.87451 
0.87451 0.87451 0.87451 0.87451 0.87451 0.87451 
0.87451 0.87451 0.87451 0.87451 0.87451 0.87451 
0.87451 0.87451 0.87451 0.87451 0.87451 0.87451 
0.87451 0.87451 0.87451 0.87451 0.87451 0.87451 
0.87451 0.87451 0.87451 0.87451 0.87451 0.87451 
0.87451 0.87451 0.87451 0.87451 0.87451 0.87451 
0.87451 0.87451 0.87451 0.87451 0.87451 0.87451 
0.87451 0.87451 0.87451 0.87451 0.87451 0.87451 
0.87451 0.87451 0.87451 0.87451 0.87451 0.87451 
0.87451 0.87451 0.87451 0.87451 0.87451 0.87451 
0.87451 0.87451 0.87451 0.87451 0.87451 0.87451 
0.87451 0.87451 0.87451 0.87451 0.87451 0.87451 
0.87451 0.87451 0.87451 0.87451 0.87451 0.87451 
0.87451 0.87451 0.87451 0.87451 0.87451 0.87451 
0.87451 0.87451 0.87451 0.87451 0.87451 0.87451 
0.87451 0.87451 0.87451 0.87451 0.87451 0.87451 
0.87451 0.87451 0.87451 0.87451 0.87451 0.87451 
0.87451 0.87451 0.87451 0.87451 0.87451 0.87451 
0.87451 0.87451 0.87451 0.87451 0.87451 0.87451 
0.87451 0.87451 0.87451 0.87451 0.87451 0.87451 
0.87451 0.87451 0.87451 0.87451 0.87451 0.87451 
0.87451 0.87451 0.87451 0.87451 0.87451 0.87451 
0.87451 0.87451 0.87451 0.87451 0.87451 0.87451 
0.87451 0.87451 0.87451 0.87451 0.87451 0.87451 
0.87451 0.87451 0.87451 0.87451 0.87451 0.87451 
0.87451 0.87451 0.87451 0.87451 0.87451 0.87451 
0.87451 0.87451 0.87451 0.87451 0.87451 0.87451 
0.87451 0.87451 0.87451 0.87451 0.87451 0.87451 
0.87451 0.87451 0.87451 0.87451 0.87451 0.87451 
0.87451 0.87451 0.87451 0.87451 0.87451 0.87451 
0.87451 0.87451 0.87451 0.87451 0.87451 0.87451 