# vtk DataFile Version 3.0
vtk output
ASCII
DATASET POLYDATA
POINTS 7312 float
-9101.6 -2495 784.58 -9101.08 -2495 784.196 -9101.08 -2495 784.196 
-9100.72 -2495 783.932 -9100.72 -2495 783.932 -9100.8 -2495 783.992 
-9100.8 -2495 783.992 -9101.08 -2495 784.196 -9101.08 -2495 784.196 
-9102.15 -2495 784.992 -9102.36 -2495 785.148 -9102.36 -2495 785.148 
-9102.13 -2495 784.976 -9101.6 -2495 784.58 -9101.6 -2495 784.58 
-9100.8 -2495 783.992 -9101.08 -2495 784.196 -9100.72 -2495 783.932 
-9101.08 -2495 784.196 -9100.8 -2495 783.992 -9102.15 -2495 784.992 
-9102.36 -2495 785.148 -9101.6 -2495 784.58 -9102.13 -2495 784.976 
-9100.8 -2495 783.992 -9102.36 -2495 785.148 -9118.32 -2495 796.988 
-9117.29 -2495 796.224 -9117.28 -2495 796.212 -9115.1 -2495 794.596 
-9113.37 -2495 793.316 -9113.37 -2495 793.316 -9113.36 -2495 793.308 
-9113.36 -2495 793.308 -9113.34 -2495 793.292 -9113.34 -2495 793.292 
-9113.32 -2495 793.28 -9113.32 -2495 793.28 -9113.3 -2495 793.26 
-9113.3 -2495 793.26 -9113.29 -2495 793.256 -9113.29 -2495 793.256 
-9113.13 -2495 793.14 -9113.13 -2495 793.14 -9109.06 -2495 790.116 
-9108.57 -2495 789.752 -9108.52 -2495 789.716 -9108.21 -2495 789.484 
-9107.46 -2495 788.932 -9104.02 -2495 786.38 -9102.43 -2495 785.2 
-9102.37 -2495 785.156 -9102.37 -2495 785.156 -9102.36 -2495 785.148 
-9102.36 -2495 785.148 -9102.35 -2495 785.14 -9102.35 -2495 785.14 
-9102.3 -2495 785.104 -9101.08 -2495 784.196 -9101.08 -2495 784.196 
-9100.72 -2495 783.932 -9100.72 -2495 783.932 -9101.08 -2495 784.196 
-9101.08 -2495 784.196 -9102.36 -2495 785.148 -9102.36 -2495 785.148 
-9104 -2495 786.36 -9104.02 -2495 786.38 -9104.02 -2495 786.38 
-9109.6 -2495 790.52 -9110.1 -2495 790.888 -9110.18 -2495 790.948 
-9113.29 -2495 793.256 -9113.29 -2495 793.256 -9113.3 -2495 793.26 
-9113.3 -2495 793.26 -9113.33 -2495 793.284 -9113.33 -2495 793.284 
-9113.32 -2495 793.28 -9113.32 -2495 793.28 -9113.34 -2495 793.292 
-9113.34 -2495 793.292 -9113.36 -2495 793.308 -9113.36 -2495 793.308 
-9113.37 -2495 793.316 -9113.37 -2495 793.316 -9114.49 -2495 794.148 
-9114.49 -2495 794.148 -9115.88 -2495 795.18 -9115.9 -2495 795.192 
-9116.14 -2495 795.368 -9118.32 -2495 796.988 -9118.32 -2495 796.988 
-9118.33 -2495 796.992 -9118.33 -2495 796.992 -9118.36 -2495 797.016 
-9118.36 -2495 797.016 -9118.91 -2495 797.424 -9119.12 -2495 797.58 
-9119.13 -2495 797.588 -9119.33 -2495 797.732 -9119.33 -2495 797.732 
-9118.36 -2495 797.016 -9118.36 -2495 797.016 -9118.33 -2495 796.992 
-9118.33 -2495 796.992 -9118.32 -2495 796.988 -9116.14 -2495 795.368 
-9115.9 -2495 795.192 -9118.33 -2495 796.992 -9115.88 -2495 795.18 
-9118.91 -2495 797.424 -9114.49 -2495 794.148 -9113.13 -2495 793.14 
-9113.33 -2495 793.284 -9110.18 -2495 790.948 -9113.29 -2495 793.256 
-9118.33 -2495 796.992 -9118.91 -2495 797.424 -9118.36 -2495 797.016 
-9108.21 -2495 789.484 -9108.52 -2495 789.716 -9110.18 -2495 790.948 
-9108.57 -2495 789.752 -9109.06 -2495 790.116 -9119.12 -2495 797.58 
-9117.28 -2495 796.212 -9119.13 -2495 797.588 -9117.29 -2495 796.224 
-9118.32 -2495 796.988 -9110.1 -2495 790.888 -9109.6 -2495 790.52 
-9107.46 -2495 788.932 -9104.02 -2495 786.38 -9109.6 -2495 790.52 
-9104.02 -2495 786.38 -9104.02 -2495 786.38 -9104 -2495 786.36 
-9102.43 -2495 785.2 -9102.37 -2495 785.156 -9110.1 -2495 790.888 
-9107.46 -2495 788.932 -9110.18 -2495 790.948 -9108.21 -2495 789.484 
-9101.08 -2495 784.196 -9102.3 -2495 785.104 -9104 -2495 786.36 
-9102.35 -2495 785.14 -9102.36 -2495 785.148 -9113.36 -2495 793.308 
-9113.37 -2495 793.316 -9118.91 -2495 797.424 -9115.1 -2495 794.596 
-9119.12 -2495 797.58 -9117.28 -2495 796.212 -9101.08 -2495 784.196 
-9100.72 -2495 783.932 -9104 -2495 786.36 -9101.08 -2495 784.196 
-9116.14 -2495 795.368 -9118.33 -2495 796.992 -9118.32 -2495 796.988 
-9113.33 -2495 793.284 -9114.49 -2495 794.148 -9113.32 -2495 793.28 
-9113.34 -2495 793.292 -9110.18 -2495 790.948 -9109.06 -2495 790.116 
-9113.13 -2495 793.14 -9113.36 -2495 793.308 -9118.91 -2495 797.424 
-9113.34 -2495 793.292 -9113.32 -2495 793.28 -9113.37 -2495 793.316 
-9113.36 -2495 793.308 -9114.49 -2495 794.148 -9113.34 -2495 793.292 
-9113.32 -2495 793.28 -9118.91 -2495 797.424 -9113.3 -2495 793.26 
-9113.29 -2495 793.256 -9102.36 -2495 785.148 -9102.37 -2495 785.156 
-9104 -2495 786.36 -9113.13 -2495 793.14 -9113.29 -2495 793.256 
-9118.91 -2495 797.424 -9118.33 -2495 796.992 -9118.36 -2495 797.016 
-9119.13 -2495 797.588 -9119.33 -2495 797.732 -9118.32 -2495 796.988 
-9118.33 -2495 796.992 -9119.13 -2495 797.588 -9104 -2495 786.36 
-9102.36 -2495 785.148 -9101.08 -2495 784.196 -9113.33 -2495 793.284 
-9113.3 -2495 793.26 -9113.29 -2495 793.256 -9114.49 -2495 794.148 
-9113.37 -2495 793.316 -9113.37 -2495 793.316 -9116.01 -2495 795.272 
-9118.29 -2495 796.964 -9118.32 -2495 796.988 -9118.32 -2495 796.988 
-9116.14 -2495 795.368 -9115.9 -2495 795.192 -9115.88 -2495 795.18 
-9114.49 -2495 794.148 -9118.32 -2495 796.988 -9118.29 -2495 796.964 
-9116.14 -2495 795.368 -9116.01 -2495 795.272 -9113.37 -2495 793.316 
-9116.14 -2495 795.368 -9113.37 -2495 793.316 -9115.9 -2495 795.192 
-9115.88 -2495 795.18 -9115.88 -2495 795.18 -9113.37 -2495 793.316 
-9114.49 -2495 794.148 -9102.36 -2495 785.148 -9102.41 -2495 785.18 
-9104.02 -2495 786.38 -9104.02 -2495 786.38 -9104 -2495 786.36 
-9102.36 -2495 785.148 -9104.02 -2495 786.38 -9102.41 -2495 785.18 
-9104 -2495 786.36 -9102.36 -2495 785.148 -9118.36 -2495 797.016 
-9118.33 -2495 796.992 -9118.33 -2495 796.992 -9118.32 -2495 796.988 
-9118.32 -2495 796.988 -9118.33 -2495 796.992 -9118.33 -2495 796.992 
-9118.33 -2495 797 -9118.36 -2495 797.016 -9118.33 -2495 796.992 
-9118.33 -2495 797 -9118.32 -2495 796.988 -9118.33 -2495 796.992 
-9118.36 -2495 797.016 -9118.33 -2495 797 -9118.33 -2495 796.992 
-9104.5 -2495 786.736 -9104.02 -2495 786.38 -9104.02 -2495 786.38 
-9105.83 -2495 787.72 -9105.95 -2495 787.812 -9105.97 -2495 787.828 
-9106.86 -2495 788.488 -9107.62 -2495 789.048 -9108.14 -2495 789.432 
-9108.46 -2495 789.672 -9108.8 -2495 789.924 -9108.9 -2495 789.996 
-9110.01 -2495 790.824 -9113.26 -2495 793.236 -9113.26 -2495 793.236 
-9110.96 -2495 791.524 -9110.11 -2495 790.896 -9110.02 -2495 790.832 
-9109.84 -2495 790.7 -9109.39 -2495 790.364 -9108.86 -2495 789.972 
-9108.7 -2495 789.852 -9106.94 -2495 788.544 -9106.91 -2495 788.524 
-9106.75 -2495 788.408 -9105.33 -2495 787.348 -9104.5 -2495 786.736 
-9105.33 -2495 787.348 -9106.75 -2495 788.408 -9108.46 -2495 789.672 
-9108.8 -2495 789.924 -9106.94 -2495 788.544 -9108.9 -2495 789.996 
-9106.91 -2495 788.524 -9106.75 -2495 788.408 -9108.9 -2495 789.996 
-9108.8 -2495 789.924 -9106.75 -2495 788.408 -9105.97 -2495 787.828 
-9105.95 -2495 787.812 -9106.86 -2495 788.488 -9105.83 -2495 787.72 
-9107.62 -2495 789.048 -9105.33 -2495 787.348 -9108.14 -2495 789.432 
-9108.46 -2495 789.672 -9104.02 -2495 786.38 -9104.5 -2495 786.736 
-9105.83 -2495 787.72 -9105.33 -2495 787.348 -9110.02 -2495 790.832 
-9110.11 -2495 790.896 -9110.01 -2495 790.824 -9110.96 -2495 791.524 
-9113.26 -2495 793.236 -9108.86 -2495 789.972 -9109.39 -2495 790.364 
-9110.01 -2495 790.824 -9109.84 -2495 790.7 -9110.02 -2495 790.832 
-9106.94 -2495 788.544 -9108.7 -2495 789.852 -9110.01 -2495 790.824 
-9108.86 -2495 789.972 -9106.94 -2495 788.544 -9110.01 -2495 790.824 
-9108.9 -2495 789.996 -9113.26 -2495 793.236 -9113.29 -2495 793.256 
-9113.29 -2495 793.256 -9113.3 -2495 793.26 -9113.3 -2495 793.26 
-9113.31 -2495 793.272 -9113.31 -2495 793.272 -9113.32 -2495 793.28 
-9113.32 -2495 793.28 -9113.3 -2495 793.26 -9113.3 -2495 793.26 
-9113.29 -2495 793.256 -9113.29 -2495 793.256 -9112.37 -2495 792.572 
-9104.02 -2495 786.38 -9104.02 -2495 786.38 -9102.36 -2495 785.148 
-9102.36 -2495 785.148 -9101.08 -2495 784.196 -9101.08 -2495 784.196 
-9100.72 -2495 783.932 -9100.72 -2495 783.932 -9101.08 -2495 784.196 
-9101.08 -2495 784.196 -9101.6 -2495 784.58 -9101.6 -2495 784.58 
-9102.13 -2495 784.976 -9102.36 -2495 785.148 -9102.36 -2495 785.148 
-9102.54 -2495 785.284 -9104.02 -2495 786.38 -9104.02 -2495 786.38 
-9104.5 -2495 786.736 -9104.5 -2495 786.736 -9105.33 -2495 787.348 
-9106.75 -2495 788.408 -9106.91 -2495 788.524 -9106.94 -2495 788.544 
-9108.7 -2495 789.852 -9108.86 -2495 789.972 -9109.39 -2495 790.364 
-9109.84 -2495 790.7 -9110.02 -2495 790.832 -9110.11 -2495 790.896 
-9110.96 -2495 791.524 -9113.26 -2495 793.236 -9102.13 -2495 784.976 
-9102.36 -2495 785.148 -9102.36 -2495 785.148 -9104.02 -2495 786.38 
-9102.54 -2495 785.284 -9104.02 -2495 786.38 -9110.96 -2495 791.524 
-9110.11 -2495 790.896 -9113.31 -2495 793.272 -9110.02 -2495 790.832 
-9109.84 -2495 790.7 -9113.3 -2495 793.26 -9113.29 -2495 793.256 
-9113.31 -2495 793.272 -9113.26 -2495 793.236 -9110.96 -2495 791.524 
-9106.91 -2495 788.524 -9106.75 -2495 788.408 -9112.37 -2495 792.572 
-9105.33 -2495 787.348 -9104.02 -2495 786.38 -9104.5 -2495 786.736 
-9104.02 -2495 786.38 -9106.91 -2495 788.524 -9112.37 -2495 792.572 
-9106.94 -2495 788.544 -9113.31 -2495 793.272 -9108.7 -2495 789.852 
-9108.86 -2495 789.972 -9100.72 -2495 783.932 -9101.08 -2495 784.196 
-9101.08 -2495 784.196 -9102.36 -2495 785.148 -9101.6 -2495 784.58 
-9102.13 -2495 784.976 -9113.32 -2495 793.28 -9113.31 -2495 793.272 
-9113.3 -2495 793.26 -9113.29 -2495 793.256 -9108.86 -2495 789.972 
-9113.31 -2495 793.272 -9109.39 -2495 790.364 -9109.84 -2495 790.7 
-9113.29 -2495 793.256 -9113.31 -2495 793.272 -9112.37 -2495 792.572 
-9109.61 -2495 790.528 -9113.29 -2495 793.256 -9113.29 -2495 793.256 
-9110.18 -2495 790.948 -9110.1 -2495 790.888 -9109.6 -2495 790.52 
-9104.02 -2495 786.38 -9104.02 -2495 786.38 -9107.9 -2495 789.256 
-9108.35 -2495 789.592 -9108.68 -2495 789.832 -9108.73 -2495 789.872 
-9109.61 -2495 790.528 -9108.73 -2495 789.872 -9110.18 -2495 790.948 
-9109.61 -2495 790.528 -9113.29 -2495 793.256 -9108.68 -2495 789.832 
-9108.35 -2495 789.592 -9110.18 -2495 790.948 -9107.9 -2495 789.256 
-9110.1 -2495 790.888 -9109.6 -2495 790.52 -9107.9 -2495 789.256 
[...]
POINT_DATA 7312
COLOR_SCALARS VRMLColor 3
1 0 0 1 0 0 1 0 0 
1 0 0 1 0 0 
1 0 0 1 0 0 
1 0 0 1 0 0 
1 0 0 1 0 0 
1 0 0 1 0 0 
1 0 0 0.772549 0.647059 0.270588 
0.772549 0.647059 0.270588 0.772549 0.647059 0.270588 
0.772549 0.647059 0.270588 0.772549 0.647059 0.270588 
0.772549 0.647059 0.270588 0.772549 0.647059 0.270588 
0.772549 0.647059 0.270588 0.772549 0.647059 0.270588 
0.772549 0.647059 0.270588 0.772549 0.647059 0.270588 
0.772549 0.647059 0.270588 1 0 0 
1 0 0 1 0 0 
1 0 0 1 0 0 
1 0 0 1 0 0 
1 0 0 1 0 0 
1 0 0 1 0 0 
1 0 0 1 0 0 
1 0 0 1 0 0 
1 0 0 1 0 0 
1 0 0 1 0 0 
1 0 0 1 0 0 
1 0 0 1 0 0 
1 0 0 1 0 0 
1 0 0 1 0 0 
1 0 0 1 0 0 
1 0 0 1 0 0 
1 0 0 1 0 0 
1 0 0 1 0 0 
1 0 0 1 0 0 
1 0 0 1 0 0 
1 0 0 1 0 0 
1 0 0 1 0 0 
1 0 0 1 0 0 
1 0 0 1 0 0 
1 0 0 1 0 0 
1 0 0 1 0 0 
1 0 0 1 0 0 
1 0 0 1 0 0 
1 0 0 1 0 0 
1 0 0 1 0 0 
1 0 0 1 0 0 
1 0 0 1 0 0 
1 0 0 1 0 0 
1 0 0 1 0 0 
1 0 0 1 0 0 
1 0 0 1 0 0 
1 0 0 1 0 0 
1 0 0 1 0 0 
1 0 0 1 0 0 
1 0 0 1 0 0 
1 0 0 1 0 0 
0.772549 0.647059 0.270588 0.772549 0.647059 0.270588 
0.772549 0.647059 0.270588 0.772549 0.647059 0.270588 
0.772549 0.647059 0.270588 0.772549 0.647059 0.270588 
0.772549 0.647059 0.270588 0.772549 0.647059 0.270588 
0.772549 0.647059 0.270588 0.772549 0.647059 0.270588 
0.772549 0.647059 0.270588 0.772549 0.647059 0.270588 
0.772549 0.647059 0.270588 0.772549 0.647059 0.270588 
0.772549 0.647059 0.270588 0.772549 0.647059 0.270588 
0.772549 0.647059 0.270588 0.772549 0.647059 0.270588 
0.772549 0.647059 0.270588 0.772549 0.647059 0.270588 
0.772549 0.647059 0.270588 0.772549 0.647059 0.270588 
0.772549 0.647059 0.270588 0.772549 0.647059 0.270588 
0.772549 0.647059 0.270588 0.772549 0.647059 0.270588 
0.772549 0.647059 0.270588 0.772549 0.647059 0.270588 
0.772549 0.647059 0.270588 0.772549 0.647059 0.270588 
0.772549 0.647059 0.270588 0.772549 0.647059 0.270588 
0.772549 0.647059 0.270588 0.772549 0.647059 0.270588 
0.772549 0.647059 0.270588 0.772549 0.647059 0.270588 
0.772549 0.647059 0.270588 0.772549 0.647059 0.270588 
0.772549 0.647059 0.270588 0.772549 0.647059 0.270588 
0.772549 0.647059 0.270588 0.772549 0.647059 0.270588 
0.772549 0.647059 0.270588 0.772549 0.647059 0.270588 
0.772549 0.647059 0.270588 0.772549 0.647059 0.270588 
0.772549 0.647059 0.270588 0.772549 0.647059 0.270588 
0.772549 0.647059 0.270588 0.772549 0.647059 0.270588 
0.772549 0.647059 0.270588 0.772549 0.647059 0.270588 
0.772549 0.647059 0.270588 0.772549 0.647059 0.270588 
0.772549 0.647059 0.270588 0.772549 0.647059 0.270588 
0.772549 0.647059 0.270588 0.772549 0.647059 0.270588 
0.772549 0.647059 0.270588 0.772549 0.647059 0.270588 
0.772549 0.647059 0.270588 0.772549 0.647059 0.270588 
0.772549 0.647059 0.270588 0.772549 0.647059 0.270588 
0.772549 0.647059 0.270588 0.772549 0.647059 0.270588 
0.772549 0.647059 0.270588 0.772549 0.647059 0.270588 
0.772549 0.647059 0.270588 0.772549 0.647059 0.270588 
0.772549 0.647059 0.270588 0.772549 0.647059 0.270588 
0.772549 0.647059 0.270588 0.772549 0.647059 0.270588 
0.772549 0.647059 0.270588 0.772549 0.647059 0.270588 
0.772549 0.647059 0.270588 0.772549 0.647059 0.270588 
0.772549 0.647059 0.270588 0.772549 0.647059 0.270588 
0.772549 0.647059 0.270588 0.772549 0.647059 0.270588 
0.772549 0.647059 0.270588 0.772549 0.647059 0.270588 
0.772549 0.647059 0.270588 0.772549 0.647059 0.270588 
0.772549 0.647059 0.270588 0.772549 0.647059 0.270588 
0.772549 0.647059 0.270588 0.772549 0.647059 0.270588 
0.772549 0.647059 0.270588 0.772549 0.647059 0.270588 
0.772549 0.647059 0.270588 1 0 0 
1 0 0 1 0 0 
1 0 0 1 0 0 
1 0 0 1 0 0 
1 0 0 1 0 0 
1 0 0 1 0 0 
0.772549 0.647059 0.270588 0.772549 0.647059 0.270588 
0.772549 0.647059 0.270588 0.772549 0.647059 0.270588 
0.772549 0.647059 0.270588 0.772549 0.647059 0.270588 
0.772549 0.647059 0.270588 0.772549 0.647059 0.270588 
0.772549 0.647059 0.270588 0.772549 0.647059 0.270588 
0.772549 0.647059 0.270588 0.772549 0.647059 0.270588 
1 0 0 1 0 0 
1 0 0 1 0 0 
1 0 0 1 0 0 
0.772549 0.647059 0.270588 0.772549 0.647059 0.270588 
0.772549 0.647059 0.270588 0.772549 0.647059 0.270588 
1 0 0 1 0 0 
1 0 0 1 0 0 
1 0 0 1 0 0 
1 0 0 1 0 0 
1 0 0 0.772549 0.647059 0.270588 
0.772549 0.647059 0.270588 0.772549 0.647059 0.270588 
0.772549 0.647059 0.270588 0.772549 0.647059 0.270588 
0.772549 0.647059 0.270588 0.772549 0.647059 0.270588 
1 0 0 1 0 0 
1 0 0 1 0 0 
1 0 0 1 0 0 
1 0 0 1 0 0 
1 0 0 1 0 0 
1 0 0 1 0 0 
1 0 0 1 0 0 
1 0 0 1 0 0 
1 0 0 1 0 0 
1 0 0 1 0 0 
1 0 0 1 0 0 
1 0 0 1 0 0 
1 0 0 1 0 0 
1 0 0 0.772549 0.647059 0.270588 
0.772549 0.647059 0.270588 0.772549 0.647059 0.270588 
0.772549 0.647059 0.270588 0.772549 0.647059 0.270588 
0.772549 0.647059 0.270588 0.772549 0.647059 0.270588 
0.772549 0.647059 0.270588 0.772549 0.647059 0.270588 
0.772549 0.647059 0.270588 0.772549 0.647059 0.270588 
0.772549 0.647059 0.270588 0.772549 0.647059 0.270588 
0.772549 0.647059 0.270588 0.772549 0.647059 0.270588 
0.772549 0.647059 0.270588 0.772549 0.647059 0.270588 
0.772549 0.647059 0.270588 0.772549 0.647059 0.270588 
0.772549 0.647059 0.270588 0.772549 0.647059 0.270588 
0.772549 0.647059 0.270588 0.772549 0.647059 0.270588 
0.772549 0.647059 0.270588 0.772549 0.647059 0.270588 
0.772549 0.647059 0.270588 0.772549 0.647059 0.270588 
0.772549 0.647059 0.270588 0.772549 0.647059 0.270588 
0.772549 0.647059 0.270588 0.772549 0.647059 0.270588 
0.772549 0.647059 0.270588 0.772549 0.647059 0.270588 
0.772549 0.647059 0.270588 0.772549 0.647059 0.270588 
0.772549 0.647059 0.270588 0.772549 0.647059 0.270588 
0.772549 0.647059 0.270588 0.772549 0.647059 0.270588 
0.772549 0.647059 0.270588 1 0 0 
1 0 0 1 0 0 
1 0 0 1 0 0 
1 0 0 1 0 0 
1 0 0 1 0 0 
1 0 0 1 0 0 
1 0 0 1 0 0 
1 0 0 1 0 0 
1 0 0 1 0 0 
1 0 0 1 0 0 
1 0 0 1 0 0 
1 0 0 1 0 0 
1 0 0 1 0 0 
1 0 0 1 0 0 
1 0 0 1 0 0 
1 0 0 1 0 0 
1 0 0 1 0 0 
1 0 0 1 0 0 
1 0 0 1 0 0 
1 0 0 1 0 0 
1 0 0 1 0 0 
1 0 0 1 0 0 
1 0 0 1 0 0 
1 0 0 0.772549 0.647059 0.270588 
0.772549 0.647059 0.270588 0.772549 0.647059 0.270588 
0.772549 0.647059 0.270588 0.772549 0.647059 0.270588 
0.772549 0.647059 0.270588 0.772549 0.647059 0.270588 
0.772549 0.647059 0.270588 0.772549 0.647059 0.270588 
0.772549 0.647059 0.270588 0.772549 0.647059 0.270588 
0.772549 0.647059 0.270588 0.772549 0.647059 0.270588 
0.772549 0.647059 0.270588 0.772549 0.647059 0.270588 
0.772549 0.647059 0.270588 0.772549 0.647059 0.270588 
0.772549 0.647059 0.270588 0.772549 0.647059 0.270588 
0.772549 0.647059 0.270588 0.772549 0.647059 0.270588 
0.772549 0.647059 0.270588 0.772549 0.647059 0.270588 
0.772549 0.647059 0.270588 0.772549 0.647059 0.270588 
0.772549 0.647059 0.270588 0.772549 0.647059 0.270588 
0.772549 0.647059 0.270588 0.772549 0.647059 0.270588 
0.772549 0.647059 0.270588 0.772549 0.647059 0.270588 
0.772549 0.647059 0.270588 0.772549 0.647059 0.270588 
0.772549 0.647059 0.270588 0.772549 0.647059 0.270588 
0.772549 0.647059 0.270588 0.772549 0.647059 0.270588 
0.772549 0.647059 0.270588 0.772549 0.647059 0.270588 
0.772549 0.647059 0.270588 0.772549 0.647059 0.270588 
0.772549 0.647059 0.270588 0.772549 0.647059 0.270588 
0.772549 0.647059 0.270588 0.772549 0.647059 0.270588 
0.772549 0.647059 0.270588 1 0 0 
1 0 0 1 0 0 
1 0 0 1 0 0 
1 0 0 1 0 0 
1 0 0 1 0 0 
1 0 0 1 0 0 
1 0 0 1 0 0 
0.772549 0.647059 0.270588 0.772549 0.647059 0.270588 
0.772549 0.647059 0.270588 0.772549 0.647059 0.270588 
0.772549 0.647059 0.270588 0.772549 0.647059 0.270588 
0.772549 0.647059 0.270588 0.772549 0.647059 0.270588 
0.772549 0.647059 0.270588 0.772549 0.647059 0.270588 
0.772549 0.647059 0.270588 0.772549 0.647059 0.270588 
0.772549 0.647059 0.270588 0.772549 0.647059 0.270588 
0.772549 0.647059 0.270588 0.772549 0.647059 0.270588 
1 0 0 1 0 0 
1 0 0 1 0 0 
1 0 0 1 0 0 
1 0 0 1 0 0 
1 0 0 1 0 0 
1 0 0 1 0 0 
1 0 0 1 0 0 
1 0 0 1 0 0 
1 0 0 1 0 0 
1 0 0 1 0 0 
1 0 0 1 0 0 
1 0 0 1 0 0 
1 0 0 1 0 0 
1 0 0 1 0 0 
1 0 0 1 0 0 
1 0 0 1 0 0 
1 0 0 1 0 0 
1 0 0 1 0 0 
1 0 0 1 0 0 
1 0 0 1 0 0 
1 0 0 1 0 0 
1 0 0 1 0 0 
1 0 0 1 0 0 
1 0 0 1 0 0 
1 0 0 1 0 0 
1 0 0 1 0 0 
1 0 0 1 0 0 
1 0 0 1 0 0 
1 0 0 1 0 0 
1 0 0 1 0 0 
1 0 0 1 0 0 
1 0 0 0.772549 0.647059 0.270588 
0.772549 0.647059 0.270588 0.772549 0.647059 0.270588 
0.772549 0.647059 0.270588 0.772549 0.647059 0.270588 
0.772549 0.647059 0.270588 0.772549 0.647059 0.270588 
0.772549 0.647059 0.270588 0.772549 0.647059 0.270588 
0.772549 0.647059 0.270588 0.772549 0.647059 0.270588 
0.772549 0.647059 0.270588 0.772549 0.647059 0.270588 
0.772549 0.647059 0.270588 0.772549 0.647059 0.270588 
0.772549 0.647059 0.270588 0.772549 0.647059 0.270588 
0.772549 0.647059 0.270588 0.772549 0.647059 0.270588 
0.772549 0.647059 0.270588 0.772549 0.647059 0.270588 
0.772549 0.647059 0.270588 0.772549 0.647059 0.270588 
0.772549 0.647059 0.270588 0.772549 0.647059 0.270588 
0.772549 0.647059 0.270588 0.772549 0.647059 0.270588 
0.772549 0.647059 0.270588 0.772549 0.647059 0.270588 
0.772549 0.647059 0.270588 0.772549 0.647059 0.270588 
0.772549 0.647059 0.270588 0.772549 0.647059 0.270588 
0.772549 0.647059 0.270588 0.772549 0.647059 0.270588 
0.772549 0.647059 0.270588 0.772549 0.647059 0.270588 
0.772549 0.647059 0.270588 0.772549 0.647059 0.270588 
0.772549 0.647059 0.270588 0.772549 0.647059 0.270588 
0.772549 0.647059 0.270588 0.772549 0.647059 0.270588 
0.772549 0.647059 0.270588 0.772549 0.647059 0.270588 
0.772549 0.647059 0.270588 0.772549 0.647059 0.270588 
0.772549 0.647059 0.270588 0.772549 0.647059 0.270588 
0.772549 0.647059 0.270588 0.772549 0.647059 0.270588 
0.772549 0.647059 0.270588 0.772549 0.647059 0.270588 
0.772549 0.647059 0.270588 0.772549 0.647059 0.270588 
0.772549 0.647059 0.270588 0.772549 0.647059 0.270588 
0.772549 0.647059 0.270588 0.772549 0.647059 0.270588 
0.772549 0.647059 0.270588 0.772549 0.647059 0.270588 
0.772549 0.647059 0.270588 0.772549 0.647059 0.270588 
0.772549 0.647059 0.270588 1 0 0 
1 0 0 1 0 0 
1 0 0 1 0 0 
1 0 0 0.772549 0.647059 0.270588 
0.772549 0.647059 0.270588 0.772549 0.647059 0.270588 
1 0 0 1 0 0 
1 0 0 1 0 0 
1 0 0 1 0 0 
1 0 0 1 0 0 
1 0 0 1 0 0 
1 0 0 1 0 0 
1 0 0 1 0 0 
1 0 0 1 0 0 
1 0 0 1 0 0 
1 0 0 1 0 0 
1 0 0 1 0 0 
1 0 0 1 0 0 
1 0 0 1 0 0 
1 0 0 1 0 0 
1 0 0 1 0 0 
1 0 0 1 0 0 
1 0 0 0.772549 0.647059 0.270588 
0.772549 0.647059 0.270588 0.772549 0.647059 0.270588 
0.772549 0.647059 0.270588 0.772549 0.647059 0.270588 
0.772549 0.647059 0.270588 0.772549 0.647059 0.270588 
0.772549 0.647059 0.270588 0.772549 0.647059 0.270588 
0.772549 0.647059 0.270588 0.772549 0.647059 0.270588 
0.772549 0.647059 0.270588 0.772549 0.647059 0.270588 
0.772549 0.647059 0.270588 0.772549 0.647059 0.270588 
0.772549 0.647059 0.270588 0.772549 0.647059 0.270588 
0.772549 0.647059 0.270588 0.772549 0.647059 0.270588 
0.772549 0.647059 0.270588 0.772549 0.647059 0.270588 
0.772549 0.647059 0.270588 0.772549 0.647059 0.270588 
0.772549 0.647059 0.270588 0.772549 0.647059 0.270588 
0.772549 0.647059 0.270588 0.772549 0.647059 0.270588 
0.772549 0.647059 0.270588 0.772549 0.647059 0.270588 
0.772549 0.647059 0.270588 0.772549 0.647059 0.270588 
0.772549 0.647059 0.270588 0.772549 0.647059 0.270588 
0.772549 0.647059 0.270588 0.772549 0.647059 0.270588 
0.772549 0.647059 0.270588 0.772549 0.647059 0.270588 
0.772549 0.647059 0.270588 0.772549 0.647059 0.270588 
0.772549 0.647059 0.270588 0.772549 0.647059 0.270588 
0.772549 0.647059 0.270588 0.772549 0.647059 0.270588 
1 0 0 1 0 0 
1 0 0 1 0 0 
1 0 0 1 0 0 
1 0 0 1 0 0 
0.772549 0.647059 0.270588 0.772549 0.647059 0.270588 
0.772549 0.647059 0.270588 0.772549 0.647059 0.270588 
1 0 0 1 0 0 
1 0 0 1 0 0 
1 0 0 1 0 0 
0.772549 0.647059 0.270588 0.772549 0.647059 0.270588 
0.772549 0.647059 0.270588 0.772549 0.647059 0.270588 
1 0 0 1 0 0 
1 0 0 1 0 0 
1 0 0 1 0 0 
1 0 0 1 0 0 
1 0 0 1 0 0 
0.772549 0.647059 0.270588 0.772549 0.647059 0.270588 
0.772549 0.647059 0.270588 0.772549 0.647059 0.270588 
0.772549 0.647059 0.270588 0.772549 0.647059 0.270588 
0.772549 0.647059 0.270588 1 0 0 
1 0 0 1 0 0 
1 0 0 1 0 0 
1 0 0 0.772549 0.647059 0.270588 
0.772549 0.647059 0.270588 0.772549 0.647059 0.270588 
1 0 0 1 0 0 
1 0 0 1 0 0 
1 0 0 1 0 0 
0.772549 0.647059 0.270588 0.772549 0.647059 0.270588 
0.772549 0.647059 0.270588 1 0 0 
1 0 0 1 0 0 
1 0 0 1 0 0 
1 0 0 1 0 0 
1 0 0 1 0 0 
1 0 0 1 0 0 
1 0 0 1 0 0 
1 0 0 1 0 0 
1 0 0 1 0 0 
1 0 0 1 0 0 
1 0 0 0.772549 0.647059 0.270588 
0.772549 0.647059 0.270588 0.772549 0.647059 0.270588 
0.772549 0.647059 0.270588 0.772549 0.647059 0.270588 
0.772549 0.647059 0.270588 0.772549 0.647059 0.270588 
0.772549 0.647059 0.270588 0.772549 0.647059 0.270588 
0.772549 0.647059 0.270588 0.772549 0.647059 0.270588 
0.772549 0.647059 0.270588 0.772549 0.647059 0.270588 
0.772549 0.647059 0.270588 0.772549 0.647059 0.270588 
0.772549 0.647059 0.270588 0.772549 0.647059 0.270588 
1 0 0 1 0 0 
1 0 0 1 0 0 
1 0 0 1 0 0 
1 0 0 1 0 0 
1 0 0 1 0 0 
1 0 0 1 0 0 
1 0 0 1 0 0 
1 0 0 1 0 0 
1 0 0 1 0 0 
1 0 0 1 0 0 
1 0 0 1 0 0 
1 0 0 1 0 0 
1 0 0 1 0 0 
1 0 0 1 0 0 
1 0 0 1 0 0 
1 0 0 0.772549 0.647059 0.270588 
0.772549 0.647059 0.270588 0.772549 0.647059 0.270588 
0.772549 0.647059 0.270588 0.772549 0.647059 0.270588 
0.772549 0.647059 0.270588 0.772549 0.647059 0.270588 
0.772549 0.647059 0.270588 0.772549 0.647059 0.270588 
0.772549 0.647059 0.270588 0.772549 0.647059 0.270588 
0.772549 0.647059 0.270588 0.772549 0.647059 0.270588 
0.772549 0.647059 0.270588 0.772549 0.647059 0.270588 
0.772549 0.647059 0.270588 0.772549 0.647059 0.270588 
0.772549 0.647059 0.270588 0.772549 0.647059 0.270588 
0.772549 0.647059 0.270588 0.772549 0.647059 0.270588 
0.772549 0.647059 0.270588 0.772549 0.647059 0.270588 
0.772549 0.647059 0.270588 0.772549 0.647059 0.270588 
0.772549 0.647059 0.270588 0.772549 0.647059 0.270588 
0.772549 0.647059 0.270588 0.772549 0.647059 0.270588 
0.772549 0.647059 0.270588 0.772549 0.647059 0.270588 
0.772549 0.647059 0.270588 0.772549 0.647059 0.270588 
0.772549 0.647059 0.270588 0.772549 0.647059 0.270588 
1 0 0 1 0 0 
1 0 0 1 0 0 
1 0 0 1 0 0 
1 0 0 1 0 0 
1 0 0 1 0 0 
0.772549 0.647059 0.270588 0.772549 0.647059 0.270588 
0.772549 0.647059 0.270588 0.772549 0.647059 0.270588 
0.772549 0.647059 0.270588 0.772549 0.647059 0.270588 
0.772549 0.647059 0.270588 1 0 0 
1 0 0 1 0 0 
1 0 0 1 0 0 
1 0 0 1 0 0 
1 0 0 1 0 0 
1 0 0 1 0 0 
1 0 0 1 0 0 
1 0 0 1 0 0 
1 0 0 1 0 0 
1 0 0 1 0 0 
1 0 0 1 0 0 
1 0 0 1 0 0 
1 0 0 1 0 0 
1 0 0 1 0 0 
1 0 0 1 0 0 
1 0 0 1 0 0 
1 0 0 1 0 0 
1 0 0 1 0 0 
1 0 0 1 0 0 
1 0 0 1 0 0 
1 0 0 1 0 0 
1 0 0 1 0 0 
1 0 0 1 0 0 
0.772549 0.647059 0.270588 0.772549 0.647059 0.270588 
0.772549 0.647059 0.270588 0.772549 0.647059 0.270588 
0.772549 0.647059 0.270588 0.772549 0.647059 0.270588 
0.772549 0.647059 0.270588 0.772549 0.647059 0.270588 
0.772549 0.647059 0.270588 0.772549 0.647059 0.270588 
0.772549 0.647059 0.270588 0.772549 0.647059 0.270588 
0.772549 0.647059 0.270588 0.772549 0.647059 0.270588 
0.772549 0.647059 0.270588 0.772549 0.647059 0.270588 
0.772549 0.647059 0.270588 0.772549 0.647059 0.270588 
0.772549 0.647059 0.270588 0.772549 0.647059 0.270588 
0.772549 0.647059 0.270588 0.772549 0.647059 0.270588 
0.772549 0.647059 0.270588 0.772549 0.647059 0.270588 
0.772549 0.647059 0.270588 0.772549 0.647059 0.270588 
0.772549 0.647059 0.270588 0.772549 0.647059 0.270588 
0.772549 0.647059 0.270588 0.772549 0.647059 0.270588 
0.772549 0.647059 0.270588 0.772549 0.647059 0.270588 
0.772549 0.647059 0.270588 0.772549 0.647059 0.270588 
0.772549 0.647059 0.270588 0.772549 0.647059 0.270588 
0.772549 0.647059 0.270588 0.772549 0.647059 0.270588 
0.772549 0.647059 0.270588 0.772549 0.647059 0.270588 
0.772549 0.647059 0.270588 0.772549 0.647059 0.270588 
0.772549 0.647059 0.270588 0.772549 0.647059 0.270588 
0.772549 0.647059 0.270588 0.772549 0.647059 0.270588 
0.772549 0.647059 0.270588 0.772549 0.647059 0.270588 
0.772549 0.647059 0.270588 0.772549 0.647059 0.270588 
0.772549 0.647059 0.270588 0.772549 0.647059 0.270588 
0.772549 0.647059 0.270588 1 0 0 
1 0 0 1 0 0 
1 0 0 1 0 0 
1 0 0 1 0 0 
0.772549 0.647059 0.270588 0.772549 0.647059 0.270588 
0.772549 0.647059 0.270588 0.772549 0.647059 0.270588 
0.772549 0.647059 0.270588 0.772549 0.647059 0.270588 
0.772549 0.647059 0.270588 1 0 0 
1 0 0 1 0 0 
1 0 0 1 0 0 
1 0 0 0.772549 0.647059 0.270588 
0.772549 0.647059 0.270588 0.772549 0.647059 0.270588 
1 0 0 1 0 0 
1 0 0 1 0 0 
1 0 0 1 0 0 
0.772549 0.647059 0.270588 0.772549 0.647059 0.270588 
0.772549 0.647059 0.270588 1 0 0 
1 0 0 1 0 0 
1 0 0 1 0 0 
1 0 0 1 0 0 
1 0 0 1 0 0 
1 0 0 0.772549 0.647059 0.270588 
0.772549 0.647059 0.270588 0.772549 0.647059 0.270588 
0.772549 0.647059 0.270588 0.772549 0.647059 0.270588 
0.772549 0.647059 0.270588 0.772549 0.647059 0.270588 
0.772549 0.647059 0.270588 0.772549 0.647059 0.270588 
0.772549 0.647059 0.270588 1 0 0 
1 0 0 1 0 0 
1 0 0 1 0 0 
1 0 0 0.772549 0.647059 0.270588 
0.772549 0.647059 0.270588 0.772549 0.647059 0.270588 
1 0 0 1 0 0 
1 0 0 1 0 0 
1 0 0 1 0 0 
1 0 0 0.772549 0.647059 0.270588 
0.772549 0.647059 0.270588 0.772549 0.647059 0.270588 
0.772549 0.647059 0.270588 1 0 0 
1 0 0 1 0 0 
1 0 0 1 0 0 
1 0 0 0.772549 0.647059 0.270588 
0.772549 0.647059 0.270588 0.772549 0.647059 0.270588 
1 0 0 1 0 0 
1 0 0 1 0 0 
1 0 0 1 0 0 
0.772549 0.647059 0.270588 0.772549 0.647059 0.270588 
0.772549 0.647059 0.270588 1 0 0 
1 0 0 1 0 0 
1 0 0 1 0 0 
1 0 0 0.772549 0.647059 0.270588 
0.772549 0.647059 0.270588 0.772549 0.647059 0.270588 
1 0 0 1 0 0 
1 0 0 1 0 0 
1 0 0 1 0 0 
0.772549 0.647059 0.270588 0.772549 0.647059 0.270588 
0.772549 0.647059 0.270588 1 0 0 
1 0 0 1 0 0 
1 0 0 1 0 0 
1 0 0 1 0 0 
1 0 0 0.772549 0.647059 0.270588 
0.772549 0.647059 0.270588 0.772549 0.647059 0.270588 
0.772549 0.647059 0.270588 1 0 0 
1 0 0 1 0 0 
1 0 0 1 0 0 
1 0 0 0.772549 0.647059 0.270588 
0.772549 0.647059 0.270588 0.772549 0.647059 0.270588 
1 0 0 1 0 0 
1 0 0 1 0 0 
1 0 0 1 0 0 
1 0 0 1 0 0 
0.772549 0.647059 0.270588 0.772549 0.647059 0.270588 
0.772549 0.647059 0.270588 0.772549 0.647059 0.270588 
1 0 0 1 0 0 
1 0 0 1 0 0 
1 0 0 1 0 0 
1 0 0 1 0 0 
1 0 0 1 0 0 
0.772549 0.647059 0.270588 0.772549 0.647059 0.270588 
0.772549 0.647059 0.270588 0.772549 0.647059 0.270588 
0.772549 0.647059 0.270588 1 0 0 
1 0 0 1 0 0 
1 0 0 1 0 0 
1 0 0 0.772549 0.647059 0.270588 
0.772549 0.647059 0.270588 0.772549 0.647059 0.270588 
1 0 0 1 0 0 
1 0 0 1 0 0 
1 0 0 1 0 0 
1 0 0 1 0 0 
0.772549 0.647059 0.270588 0.772549 0.647059 0.270588 
0.772549 0.647059 0.270588 0.772549 0.647059 0.270588 
1 0 0 1 0 0 
1 0 0 1 0 0 
1 0 0 1 0 0 
0.772549 0.647059 0.270588 0.772549 0.647059 0.270588 
0.772549 0.647059 0.270588 1 0 0 
1 0 0 1 0 0 
1 0 0 1 0 0 
1 0 0 1 0 0 
1 0 0 1 0 0 
1 0 0 1 0 0 
1 0 0 1 0 0 
1 0 0 1 0 0 
1 0 0 1 0 0 
1 0 0 1 0 0 
1 0 0 1 0 0 
1 0 0 1 0 0 
1 0 0 1 0 0 
1 0 0 1 0 0 
1 0 0 1 0 0 
1 0 0 1 0 0 
1 0 0 1 0 0 
1 0 0 1 0 0 
1 0 0 1 0 0 
1 0 0 1 0 0 
1 0 0 1 0 0 
1 0 0 1 0 0 
1 0 0 1 0 0 
1 0 0 1 0 0 
1 0 0 1 0 0 
1 0 0 1 0 0 
0.772549 0.647059 0.270588 0.772549 0.647059 0.270588 
0.772549 0.647059 0.270588 0.772549 0.647059 0.270588 
0.772549 0.647059 0.270588 0.772549 0.647059 0.270588 
0.772549 0.647059 0.270588 0.772549 0.647059 0.270588 
0.772549 0.647059 0.270588 0.772549 0.647059 0.270588 
0.772549 0.647059 0.270588 0.772549 0.647059 0.270588 
0.772549 0.647059 0.270588 0.772549 0.647059 0.270588 
0.772549 0.647059 0.270588 0.772549 0.647059 0.270588 
0.772549 0.647059 0.270588 0.772549 0.647059 0.270588 
0.772549 0.647059 0.270588 0.772549 0.647059 0.270588 
0.772549 0.647059 0.270588 0.772549 0.647059 0.270588 
0.772549 0.647059 0.270588 0.772549 0.647059 0.270588 
0.772549 0.647059 0.270588 0.772549 0.647059 0.270588 
0.772549 0.647059 0.270588 0.772549 0.647059 0.270588 
0.772549 0.647059 0.270588 0.772549 0.647059 0.270588 
0.772549 0.647059 0.270588 0.772549 0.647059 0.270588 
0.772549 0.647059 0.270588 0.772549 0.647059 0.270588 
0.772549 0.647059 0.270588 0.772549 0.647059 0.270588 
0.772549 0.647059 0.270588 0.772549 0.647059 0.270588 