# vtk DataFile Version 3.0
vtk output
ASCII
DATASET POLYDATA
POINTS 336 float
4995 4147.03 799.544 4995 3892.12 50 4995 3683.28 -564.076 
4995 3588.46 -842.896 4995 3478.4 -1186.06 4995 3471.8 -1200 
4158.68 4146.2 -1200 3696.39 4555.47 -1200 3415.32 4825.3 -1200 
2810.3 5367.39 -1200 2638.77 5533.72 -1200 2368.44 5744.55 -1200 
2363.32 5748.54 -1200 2086.31 5967.86 -1200 1597.09 6346.42 -1200 
1579.64 6359.82 -1200 1564.02 6371.06 -1200 1468.08 6485.68 -1200 
602.944 7495 -1200 690.165 7495 -1025.96 1228.34 7495 47.8692 
1229.4 7495 50 1232 7495 55.1712 1507.76 7495 605.412 
1509.97 7495 608.504 1510.87 7495 610.532 1510.87 7495 610.532 
1511.15 7494.7 610.56 1512.37 7493.45 610.68 1522.91 7482.89 611.66 
1578 7427.73 616.788 1621.22 7384.45 620.812 1630.56 7374.87 621.248 
1676.69 7327.57 623.412 1714.13 7289.18 625.164 1737.55 7265.57 627.028 
1928.82 7076.11 648.832 1930.18 7074.74 648.948 1932.54 7072.37 649.148 
1934.01 7070.93 649.364 1934.82 7070.14 649.48 1994.5 7016.37 666.584 
2055.14 6961.73 683.956 2057.45 6959.66 684.616 2061.25 6956.36 685.956 
2151.5 6878.14 717.78 2189.46 6845.23 731.168 2232.85 6807.63 746.464 
2238.17 6803.41 749.112 2249.09 6794.77 754.54 2301.67 6754.5 783.296 
2304.39 6752.42 784.78 2362.48 6707.92 816.544 2399.74 6679.38 836.916 
2400.49 6678.81 837.328 2408.75 6672.48 841.844 2419.99 6663.7 847.656 
2422.62 6661.64 849.016 2468.43 6625.84 872.704 2561.13 6553.41 920.632 
2654.4 6480.53 968.856 2657.43 6478.49 971.084 2733.81 6429.42 1026.78 
2872.34 6294.89 1038.34 2878.05 6289.34 1038.82 2883.44 6284.11 1039.27 
2889.51 6278.22 1039.77 2967.09 6210.06 1060.38 3018.2 6165.17 1073.95 
3114.02 6056.68 1051.66 3182.08 5971.58 1020.02 3202.59 5945.94 1010.48 
3273.25 5857.58 977.628 3439.55 5674.76 949.656 3453.04 5665.5 958.332 
3574.88 5530.77 936.296 3627.59 5472.49 926.76 3726.44 5363.18 908.884 
3799.91 5281.94 895.596 3846.04 5230.88 887.16 4045.22 5010.43 850.74 
4084.43 4967.43 843.584 4128.86 4918.72 835.476 4163.63 4883.66 835.436 
4168.25 4880.78 835.38 4184.29 4870.79 835.18 4202.14 4854.38 835.112 
4273.24 4791.91 834.764 4359.97 4715.72 834.336 4465.3 4623.18 833.82 
4520.94 4573.75 831.94 4578.97 4522.19 829.976 4618.03 4487.29 828.052 
4713.35 4402.11 823.36 4767.61 4352.97 818.772 4788.23 4334.3 817.028 
4840.6 4286.87 812.6 4989.59 4151.93 800 4995 4147.03 799.544 
2189.46 6845.23 731.168 2151.5 6878.14 717.78 2530.24 6366.71 498.336 
2061.25 6956.36 685.956 2057.45 6959.66 684.616 3182.08 5971.58 1020.02 
3114.02 6056.68 1051.66 2889.51 6278.22 1039.77 2967.09 6210.06 1060.38 
4520.94 4573.75 831.94 4465.3 4623.18 833.82 4995 3683.28 -564.076 
4995 3588.46 -842.896 2468.43 6625.84 872.704 2530.24 6366.71 498.336 
2561.13 6553.41 920.632 2654.4 6480.53 968.856 4202.14 4854.38 835.112 
4184.29 4870.79 835.18 4995 3478.4 -1186.06 4325.92 4249.49 -696.704 
4158.68 4146.2 -1200 3696.39 4555.47 -1200 3415.32 4825.3 -1200 
3696.39 4555.47 -1200 3678.71 4629.76 -1082.59 4325.92 4249.49 -696.704 
3829.14 4757.64 -120.156 4163.63 4883.66 835.436 4128.86 4918.72 835.476 
3273.25 5857.58 977.628 2889.51 6278.22 1039.77 2530.24 6366.71 498.336 
2883.44 6284.11 1039.27 2878.05 6289.34 1038.82 1994.5 7016.37 666.584 
1934.82 7070.14 649.48 2530.24 6366.71 498.336 1934.01 7070.93 649.364 
1932.54 7072.37 649.148 3678.71 4629.76 -1082.59 3829.14 4757.64 -120.156 
3150.02 5333.95 -401.452 2257 6497.41 197.447 2612.37 5786.36 -498.592 
1862.85 6788.95 -82.6432 2218.22 6077.89 -778.684 1894.87 6225.79 -981.908 
2363.32 5748.54 -1200 2086.31 5967.86 -1200 3018.2 6165.17 1073.95 
2967.09 6210.06 1060.38 3114.02 6056.68 1051.66 1571.52 6373.69 -1185.13 
1894.87 6225.79 -981.908 1539.5 6936.84 -285.868 1862.85 6788.95 -82.6432 
1507.76 7495 605.412 1509.97 7495 608.504 2872.34 6294.89 1038.34 
2657.43 6478.49 971.084 2530.24 6366.71 498.336 2654.4 6480.53 968.856 
3846.04 5230.88 887.16 3799.91 5281.94 895.596 2530.24 6366.71 498.336 
3726.44 5363.18 908.884 3627.59 5472.49 926.76 2408.75 6672.48 841.844 
2400.49 6678.81 837.328 2419.99 6663.7 847.656 2422.62 6661.64 849.016 
2362.48 6707.92 816.544 2304.39 6752.42 784.78 2530.24 6366.71 498.336 
2301.67 6754.5 783.296 2249.09 6794.77 754.54 2257 6497.41 197.447 
1512.37 7493.45 610.68 1509.97 7495 608.504 1511.15 7494.7 610.56 
1510.87 7495 610.532 1676.69 7327.57 623.412 1630.56 7374.87 621.248 
1522.91 7482.89 611.66 1578 7427.73 616.788 2057.45 6959.66 684.616 
2055.14 6961.73 683.956 2530.24 6366.71 498.336 1994.5 7016.37 666.584 
4045.22 5010.43 850.74 2530.24 6366.71 498.336 3829.14 4757.64 -120.156 
2257 6497.41 197.447 3574.88 5530.77 936.296 3439.55 5674.76 949.656 
2530.24 6366.71 498.336 3273.25 5857.58 977.628 1468.08 6485.68 -1200 
1539.5 6936.84 -285.868 690.165 7495 -1025.96 1228.34 7495 47.8692 
4045.22 5010.43 850.74 3846.04 5230.88 887.16 2530.24 6366.71 498.336 
1522.91 7482.89 611.66 2530.24 6366.71 498.336 1714.13 7289.18 625.164 
1737.55 7265.57 627.028 1512.37 7493.45 610.68 2257 6497.41 197.447 
1522.91 7482.89 611.66 2530.24 6366.71 498.336 3627.59 5472.49 926.76 
3574.88 5530.77 936.296 2530.24 6366.71 498.336 1714.13 7289.18 625.164 
1676.69 7327.57 623.412 1522.91 7482.89 611.66 2878.05 6289.34 1038.82 
2872.34 6294.89 1038.34 2530.24 6366.71 498.336 1539.5 6936.84 -285.868 
1468.08 6485.68 -1200 1571.52 6373.69 -1185.13 1564.02 6371.06 -1200 
1579.64 6359.82 -1200 1597.09 6346.42 -1200 2086.31 5967.86 -1200 
1571.52 6373.69 -1185.13 1894.87 6225.79 -981.908 2363.32 5748.54 -1200 
2368.44 5744.55 -1200 2218.22 6077.89 -778.684 2638.77 5533.72 -1200 
2810.3 5367.39 -1200 4465.3 4623.18 833.82 4359.97 4715.72 834.336 
4995 3588.46 -842.896 4273.24 4791.91 834.764 4202.14 4854.38 835.112 
1737.55 7265.57 627.028 2530.24 6366.71 498.336 1928.82 7076.11 648.832 
1930.18 7074.74 648.948 4618.03 4487.29 828.052 4578.97 4522.19 829.976 
4995 3892.12 50 4995 3683.28 -564.076 4128.86 4918.72 835.476 
4084.43 4967.43 843.584 3829.14 4757.64 -120.156 4045.22 5010.43 850.74 
2422.62 6661.64 849.016 2399.74 6679.38 836.916 2530.24 6366.71 498.336 
2362.48 6707.92 816.544 1228.34 7495 47.8692 1539.5 6936.84 -285.868 
1229.4 7495 50 1232 7495 55.1712 3678.71 4629.76 -1082.59 
2612.37 5786.36 -498.592 3415.32 4825.3 -1200 2810.3 5367.39 -1200 
1930.18 7074.74 648.948 2530.24 6366.71 498.336 1932.54 7072.37 649.148 
2468.43 6625.84 872.704 2422.62 6661.64 849.016 2530.24 6366.71 498.336 
2612.37 5786.36 -498.592 2218.22 6077.89 -778.684 2810.3 5367.39 -1200 
3182.08 5971.58 1020.02 2889.51 6278.22 1039.77 3202.59 5945.94 1010.48 
3273.25 5857.58 977.628 3150.02 5333.95 -401.452 2612.37 5786.36 -498.592 
3678.71 4629.76 -1082.59 2189.46 6845.23 731.168 2530.24 6366.71 498.336 
2232.85 6807.63 746.464 2238.17 6803.41 749.112 4995 3471.8 -1200 
4995 3478.4 -1186.06 4158.68 4146.2 -1200 2400.49 6678.81 837.328 
2399.74 6679.38 836.916 2422.62 6661.64 849.016 2733.81 6429.42 1026.78 
2657.43 6478.49 971.084 2872.34 6294.89 1038.34 1507.76 7495 605.412 
1232 7495 55.1712 1539.5 6936.84 -285.868 4163.63 4883.66 835.436 
4325.92 4249.49 -696.704 4168.25 4880.78 835.38 4184.29 4870.79 835.18 
4788.23 4334.3 817.028 4767.61 4352.97 818.772 4995 3892.12 50 
4713.35 4402.11 823.36 4618.03 4487.29 828.052 3574.88 5530.77 936.296 
3453.04 5665.5 958.332 3439.55 5674.76 949.656 4788.23 4334.3 817.028 
4995 3892.12 50 4840.6 4286.87 812.6 4989.59 4151.93 800 
602.944 7495 -1200 1468.08 6485.68 -1200 690.165 7495 -1025.96 
4520.94 4573.75 831.94 4995 3683.28 -564.076 4578.97 4522.19 829.976 
1862.85 6788.95 -82.6432 2257 6497.41 197.447 1509.97 7495 608.504 
4995 3892.12 50 4995 4147.03 799.544 4989.59 4151.93 800 
1579.64 6359.82 -1200 1597.09 6346.42 -1200 1571.52 6373.69 -1185.13 
2249.09 6794.77 754.54 2238.17 6803.41 749.112 2530.24 6366.71 498.336 
4995 3478.4 -1186.06 4995 3588.46 -842.896 4202.14 4854.38 835.112 
1621.22 7384.45 620.812 1578 7427.73 616.788 1630.56 7374.87 621.248 

LINES 97 291
2 0 1 
2 1 2 
2 2 3 
2 3 4 
2 4 5 
2 5 6 
2 6 7 
2 7 8 
2 8 9 
2 9 10 
2 10 11 
2 11 12 
2 12 13 
2 13 14 
2 14 15 
2 15 16 
2 16 17 
2 17 18 
2 18 19 
2 19 20 
2 20 21 
2 21 22 
2 22 23 
2 23 24 
2 24 25 
2 26 27 
2 27 28 
2 28 29 
2 29 30 
2 30 31 
2 31 32 
2 32 33 
2 33 34 
2 34 35 
2 35 36 
2 36 37 
2 37 38 
2 38 39 
2 39 40 
2 40 41 
2 41 42 
2 42 43 
2 43 44 
2 44 45 
2 45 46 
2 46 47 
2 47 48 
2 48 49 
2 49 50 
2 50 51 
2 51 52 
2 52 53 
2 53 54 
2 54 55 
2 55 56 
2 56 57 
2 57 58 
2 58 59 
2 59 60 
2 60 61 
2 61 62 
2 62 63 
2 63 64 
2 64 65 
2 65 66 
2 66 67 
2 67 68 
2 68 69 
2 69 70 
2 70 71 
2 71 72 
2 72 73 
2 73 74 
2 74 75 
2 75 76 
2 76 77 
2 77 78 
2 78 79 
2 79 80 
2 80 81 
2 81 82 
2 82 83 
2 83 84 
2 84 85 
2 85 86 
2 86 87 
2 87 88 
2 88 89 
2 89 90 
2 90 91 
2 91 92 
2 92 93 
2 93 94 
2 94 95 
2 95 96 
2 96 97 
2 97 98 

POLYGONS 119 476
3 99 100 101 
3 100 101 102 
3 101 102 103 
3 104 105 106 
3 105 106 107 
3 108 109 110 
3 109 110 111 
3 112 113 114 
3 113 114 115 
3 116 117 118 
3 117 118 119 
3 118 119 120 
3 119 120 121 
3 122 123 124 
3 123 124 125 
3 124 125 126 
3 125 126 127 
3 126 127 128 
3 129 130 131 
3 130 131 132 
3 131 132 133 
3 134 135 136 
3 135 136 137 
3 136 137 138 
3 139 140 141 
3 140 141 142 
3 141 142 143 
3 142 143 144 
3 143 144 145 
3 144 145 146 
3 145 146 147 
3 146 147 148 
3 149 150 151 
3 152 153 154 
3 153 154 155 
3 154 155 156 
3 155 156 157 
3 158 159 160 
3 159 160 161 
3 162 163 164 
3 163 164 165 
3 164 165 166 
3 167 168 169 
3 168 169 170 
3 171 172 173 
3 172 173 174 
3 173 174 175 
3 176 177 178 
3 177 178 179 
3 178 179 180 
3 181 182 183 
3 182 183 184 
3 185 186 187 
3 186 187 188 
3 189 190 191 
3 190 191 192 
3 193 194 195 
3 194 195 196 
3 197 198 199 
3 198 199 200 
3 201 202 203 
3 204 205 206 
3 205 206 207 
3 208 209 210 
3 209 210 211 
3 212 213 214 
3 215 216 217 
3 218 219 220 
3 221 222 223 
3 222 223 224 
3 223 224 225 
3 226 227 228 
3 227 228 229 
3 230 231 232 
3 231 232 233 
3 232 233 234 
3 235 236 237 
3 236 237 238 
3 237 238 239 
3 240 241 242 
3 241 242 243 
3 244 245 246 
3 245 246 247 
3 248 249 250 
3 249 250 251 
3 252 253 254 
3 253 254 255 
3 256 257 258 
3 257 258 259 
3 260 261 262 
3 261 262 263 
3 264 265 266 
3 267 268 269 
3 270 271 272 
3 273 274 275 
3 274 275 276 
3 277 278 279 
3 280 281 282 
3 281 282 283 
3 284 285 286 
3 287 288 289 
3 290 291 292 
3 293 294 295 
3 296 297 298 
3 297 298 299 
3 300 301 302 
3 301 302 303 
3 302 303 304 
3 305 306 307 
3 308 309 310 
3 309 310 311 
3 312 313 314 
3 315 316 317 
3 318 319 320 
3 321 322 323 
3 324 325 326 
3 327 328 329 
3 330 331 332 
3 333 334 335 

POINT_DATA 336
COLOR_SCALARS VRMLColor 3
1 0 0 1 0 0 1 0 0 
1 0 0 1 0 0 
1 0 0 1 0 0 
1 0 0 1 0 0 
1 0 0 1 0 0 
1 0 0 1 0 0 
1 0 0 1 0 0 
1 0 0 1 0 0 
1 0 0 1 0 0 
1 0 0 1 0 0 
1 0 0 1 0 0 
1 0 0 1 0 0 
1 0 0 1 0 0 
1 0 0 1 0 0 
1 0 0 1 0 0 
1 0 0 1 0 0 
1 0 0 1 0 0 
1 0 0 1 0 0 
1 0 0 1 0 0 
1 0 0 1 0 0 
1 0 0 1 0 0 
1 0 0 1 0 0 
1 0 0 1 0 0 
1 0 0 1 0 0 
1 0 0 1 0 0 
1 0 0 1 0 0 
1 0 0 1 0 0 
1 0 0 1 0 0 
1 0 0 1 0 0 
1 0 0 1 0 0 
1 0 0 1 0 0 
1 0 0 1 0 0 
1 0 0 1 0 0 
1 0 0 1 0 0 
1 0 0 1 0 0 
1 0 0 1 0 0 
1 0 0 1 0 0 
1 0 0 1 0 0 
1 0 0 1 0 0 
1 0 0 1 0 0 
1 0 0 1 0 0 
1 0 0 1 0 0 
1 0 0 1 0 0 
1 0 0 1 0 0 
1 0 0 1 0 0 
1 0 0 1 0 0 
1 0 0 1 0 0 
1 0 0 1 0 0 
1 0 0 1 0 0 
0 0.498039 1 0 0.498039 1 
0 0.498039 1 0 0.498039 1 
0 0.498039 1 0 0.498039 1 
0 0.498039 1 0 0.498039 1 
0 0.498039 1 0 0.498039 1 
0 0.498039 1 0 0.498039 1 
0 0.498039 1 0 0.498039 1 
0 0.498039 1 0 0.498039 1 
0 0.498039 1 0 0.498039 1 
0 0.498039 1 0 0.498039 1 
0 0.498039 1 0 0.498039 1 
0 0.498039 1 0 0.498039 1 
0 0.498039 1 0 0.498039 1 
0 0.498039 1 0 0.498039 1 
0 0.498039 1 0 0.498039 1 
0 0.498039 1 0 0.498039 1 
0 0.498039 1 0 0.498039 1 
0 0.498039 1 0 0.498039 1 
0 0.498039 1 0 0.498039 1 
0 0.498039 1 0 0.498039 1 
0 0.498039 1 0 0.498039 1 
0 0.498039 1 0 0.498039 1 
0 0.498039 1 0 0.498039 1 
0 0.498039 1 0 0.498039 1 
0 0.498039 1 0 0.498039 1 
0 0.498039 1 0 0.498039 1 
0 0.498039 1 0 0.498039 1 
0 0.498039 1 0 0.498039 1 
0 0.498039 1 0 0.498039 1 
0 0.498039 1 0 0.498039 1 
0 0.498039 1 0 0.498039 1 
0 0.498039 1 0 0.498039 1 
0 0.498039 1 0 0.498039 1 
0 0.498039 1 0 0.498039 1 
0 0.498039 1 0 0.498039 1 
0 0.498039 1 0 0.498039 1 
0 0.498039 1 0 0.498039 1 
0 0.498039 1 0 0.498039 1 
0 0.498039 1 0 0.498039 1 
0 0.498039 1 0 0.498039 1 
0 0.498039 1 0 0.498039 1 
0 0.498039 1 0 0.498039 1 
0 0.498039 1 0 0.498039 1 
0 0.498039 1 0 0.498039 1 
0 0.498039 1 0 0.498039 1 
0 0.498039 1 0 0.498039 1 
0 0.498039 1 0 0.498039 1 
0 0.498039 1 0 0.498039 1 
0 0.498039 1 0 0.498039 1 
0 0.498039 1 0 0.498039 1 
0 0.498039 1 0 0.498039 1 
0 0.498039 1 0 0.498039 1 
0 0.498039 1 0 0.498039 1 
0 0.498039 1 0 0.498039 1 
0 0.498039 1 0 0.498039 1 
0 0.498039 1 0 0.498039 1 
0 0.498039 1 0 0.498039 1 
0 0.498039 1 0 0.498039 1 
0 0.498039 1 0 0.498039 1 
0 0.498039 1 0 0.498039 1 
0 0.498039 1 0 0.498039 1 
0 0.498039 1 0 0.498039 1 
0 0.498039 1 0 0.498039 1 
0 0.498039 1 0 0.498039 1 
0 0.498039 1 0 0.498039 1 
0 0.498039 1 0 0.498039 1 
0 0.498039 1 0 0.498039 1 
0 0.498039 1 0 0.498039 1 
0 0.498039 1 0 0.498039 1 
0 0.498039 1 0 0.498039 1 
0 0.498039 1 0 0.498039 1 
0 0.498039 1 0 0.498039 1 
0 0.498039 1 0 0.498039 1 
0 0.498039 1 0 0.498039 1 
0 0.498039 1 0 0.498039 1 
0 0.498039 1 0 0.498039 1 
0 0.498039 1 0 0.498039 1 
0 0.498039 1 0 0.498039 1 
0 0.498039 1 0 0.498039 1 
0 0.498039 1 0 0.498039 1 
0 0.498039 1 0 0.498039 1 
0 0.498039 1 0 0.498039 1 
0 0.498039 1 0 0.498039 1 
0 0.498039 1 0 0.498039 1 
0 0.498039 1 0 0.498039 1 
0 0.498039 1 0 0.498039 1 
0 0.498039 1 0 0.498039 1 
0 0.498039 1 0 0.498039 1 
0 0.498039 1 0 0.498039 1 
0 0.498039 1 0 0.498039 1 
0 0.498039 1 0 0.498039 1 
0 0.498039 1 0 0.498039 1 
0 0.498039 1 0 0.498039 1 
0 0.498039 1 0 0.498039 1 
0 0.498039 1 0 0.498039 1 
0 0.498039 1 0 0.498039 1 
0 0.498039 1 0 0.498039 1 
0 0.498039 1 0 0.498039 1 
0 0.498039 1 0 0.498039 1 
0 0.498039 1 0 0.498039 1 
0 0.498039 1 0 0.498039 1 
0 0.498039 1 0 0.498039 1 
0 0.498039 1 0 0.498039 1 
0 0.498039 1 0 0.498039 1 
0 0.498039 1 0 0.498039 1 
0 0.498039 1 0 0.498039 1 
0 0.498039 1 0 0.498039 1 
0 0.498039 1 0 0.498039 1 
0 0.498039 1 0 0.498039 1 
0 0.498039 1 0 0.498039 1 
0 0.498039 1 0 0.498039 1 
0 0.498039 1 0 0.498039 1 
0 0.498039 1 0 0.498039 1 
0 0.498039 1 0 0.498039 1 
0 0.498039 1 0 0.498039 1 
0 0.498039 1 0 0.498039 1 
0 0.498039 1 0 0.498039 1 
0 0.498039 1 0 0.498039 1 
0 0.498039 1 
