# vtk DataFile Version 3.0
vtk output
ASCII
DATASET POLYDATA
POINTS 529 float
-1067.72 -2495 847.284 -1045.01 -2495 752.78 -867.935 -2495 50 
-712.883 -2495 -565.368 -552.978 -2495 -1200 -579.007 -2397.86 -1200 
-644.727 -2098.7 -1200 -586.666 -846.559 -1200 -468.018 -206.29 -1200 
-476.273 -12.1737 -1200 -465.472 144.41 -1200 -478.004 441.103 -1200 
-582.944 2002.97 -1200 -595.252 2400.4 -1200 -588.5 2597.29 -1200 
-611.827 2702.9 -1200 -650.619 3185.64 -1200 -714.366 3690.03 -1200 
-839.758 4682.18 -1200 -932.875 5049.82 -1200 -945.46 5228.33 -1200 
-944.71 5502.48 -1200 -952.09 6284.7 -1200 -960.663 7495 -1200 
-975.407 7495 -1117.6 -1030.64 7495 -484.84 -1067.3 7495 -207.372 
-1101.31 7495 50 -1114.84 7495 152.382 -1114.84 7495 152.382 
-1152.13 7379.32 440.06 -1159.17 7342.36 521.816 -1162.3 7325.91 558.192 
-1162.41 7325.38 559.364 -1163.04 7322.05 566.724 -1169.66 7287.3 643.596 
-1171.44 7277.96 664.2 -1173.32 7268.02 686.132 -1174.85 7260.02 703.796 
-1175.27 7257.76 708.776 -1176.59 7250.85 724.036 -1184.98 7206.69 821.472 
-1184.98 7206.69 821.472 -1187.36 7030.08 834.36 -1187.55 7015.65 835.416 
-1187.61 7012.87 835.892 -1190.21 6892.65 856.58 -1190.82 6863.5 861.276 
-1191.54 6828.44 866.924 -1183.99 6604.67 901.268 -1183.32 6585.34 904.008 
-1182.65 6566.07 906.744 -1180.86 6528.09 906.376 -1177.82 6463.66 905.752 
-1171.4 6327.55 904.44 -1165.11 6194.04 903.152 -1164.68 6183.32 904.016 
-1160.99 6090.33 911.5 -1155.66 5956.23 922.296 -1150.72 5831.94 932.3 
-1147.84 5757.82 939.088 -1144.39 5668.91 947.228 -1143.81 5651.95 949.824 
-1142.75 5620.62 954.616 -1139.95 5537.69 967.3 -1133.11 5380.79 972.564 
-1128.66 5278.85 975.984 -1128.23 5275.72 976.076 -1128.19 5275.25 976.092 
-1128.17 5275.16 976.096 -1128.16 5275.12 976.096 -1125.29 5262.5 976.42 
-1113.84 5212.12 977.716 -1082.9 5075.97 981.74 -1076.93 5049.8 979.592 
-1065.86 5001.27 975.608 -1065.79 5000.96 975.584 -1065.8 5000.93 975.58 
-1065.58 5000.01 975.504 -1065.55 4999.94 975.5 -1065.53 4999.63 975.476 
-1058.76 4922.77 969.98 -1053.17 4859.29 965.44 -1052.03 4847.03 963.916 
-1049.03 4814.78 959.916 -1048.35 4807.46 959.008 -1065.53 4999.63 975.476 
-1035.8 -1815.03 874.672 -1028.52 -1592.05 898.744 -857.48 -796.88 279.581 
-1028.22 -1581.08 900.192 -1027.67 -1561.37 902.8 -1008.62 -932.349 970.692 
-1003.95 -856.502 969.768 -1021.16 -1371.07 921.38 -1003.54 -849.765 969.688 
-1003.17 -843.831 969.616 -1020.79 -1175.89 962.948 -1020.73 -1146.18 969.276 
-1009.35 -944.2 970.836 -1020.58 -1066.87 986.168 -1162.41 7325.38 559.364 
-1187.55 7015.65 835.416 -1163.04 7322.05 566.724 -1187.36 7030.08 834.36 
-1169.66 7287.3 643.596 -1171.44 7277.96 664.2 -961.983 0 1000 
-906.244 1561.52 935.948 -729.851 750.811 543.6 -891.992 1680.58 910.336 
-873.875 1837.1 877.94 -1085.45 -2368.61 950.248 -1085.95 -2353.72 953.452 
-1085.44 -2368.69 950.188 -1085.33 -2369.57 949.556 -1027.41 -1551.81 904.064 
-1027.24 -1545.83 904.852 -857.48 -796.88 279.581 -1025.57 -1485.6 912.82 
-1021.16 -1371.07 921.38 -1022.93 -1391.95 923.468 -909.094 1517.62 945.548 
-907.11 1548.18 938.868 -961.983 0 1000 -906.244 1561.52 935.948 
-1035.8 -1815.03 874.672 -1035.07 -1767.87 883.656 -1028.52 -1592.05 898.744 
-1031.82 -1642.28 901.388 -952.09 6284.7 -1200 -944.71 5502.48 -1200 
-1117.22 6451.13 -252.435 -1194.87 5787.53 157.933 -1168.91 6823.94 593.08 
-1144.39 5668.91 947.228 -1147.84 5757.82 939.088 -1085.11 -2334.46 950.552 
-1084.7 -2331.13 949.744 -1068.45 -2487.31 854.036 -1080.23 -2278.44 944.476 
-1069.42 -2159.4 929.884 -1009.98 -699.976 1026.97 -1006.96 -606.128 1036.24 
-1002.08 -826.069 969.4 -961.983 0 1000 -857.48 -796.88 279.581 
-798.645 -389.504 458.552 -670.238 -348.014 -405.944 -720.654 142.664 -14.2062 
-476.273 -12.1737 -1200 -465.472 144.41 -1200 -1018.55 -299.733 1147.46 
-961.983 0 1000 -1013.24 -361.497 1113.82 -1010.15 -481.765 1075.68 
-1162.3 7325.91 558.192 -1187.61 7012.87 835.892 -1162.41 7325.38 559.364 
-1187.55 7015.65 835.416 -1128.16 5275.12 976.096 -1128.17 5275.16 976.096 
-1144.39 5668.91 947.228 -1128.19 5275.25 976.092 -1128.23 5275.72 976.076 
-989.75 434.102 1245.11 -986.165 555.192 1244.63 -961.983 0 1000 
-983.69 638.804 1244.29 -983.304 642.626 1242.62 -1080.02 -2413.01 918.212 
-1085.33 -2369.57 949.556 -1085.52 -2337.84 951.372 -1085.55 -2338.97 951.516 
-650.619 3185.64 -1200 -611.827 2702.9 -1200 -860.03 3252.67 297.941 
-588.5 2597.29 -1200 -683.287 2647.5 -210.992 -595.252 2400.4 -1200 
-690.359 1958.83 -380.521 -582.944 2002.97 -1200 -631.912 933.947 -581.724 
-478.004 441.103 -1200 -720.654 142.664 -14.2062 -465.472 144.41 -1200 
-873.875 1837.1 877.94 -864.654 1972.66 863.296 -729.851 750.811 543.6 
-852.701 2148.38 844.316 -847.192 2229.37 835.568 -1025.57 -1485.6 912.82 
-1024.39 -1430.94 920.388 -1022.93 -1391.95 923.468 -1023.76 -1401.68 924.444 
-792.057 -1859.01 -820.636 -1067.85 -2490.78 850.188 -1038.47 -1933.98 855.892 
-1068.18 -2488.9 852.268 -1068.45 -2487.31 854.036 -720.654 142.664 -14.2062 
-729.851 750.811 543.6 -631.912 933.947 -581.724 -696.453 1565.03 -9.3478 
-690.359 1958.83 -380.521 -733.836 1820.25 270.393 -683.287 2647.5 -210.992 
-850.287 2553.36 812.768 -850.842 2566.47 813.292 -1080.29 -2436.64 919.232 
-1080.19 -2428.37 918.876 -1079.03 -2442.71 911.884 -1072.61 -2473.58 874.508 
-850.842 2566.47 813.292 -854.729 2658.24 816.944 -683.287 2647.5 -210.992 
-863.797 2715.09 819.136 -865.527 2725.27 820.176 -1155.66 5956.23 922.296 
-1160.99 6090.33 911.5 -1168.91 6823.94 593.08 -1164.68 6183.32 904.016 
-1165.11 6194.04 903.152 -961.207 3794.59 908.948 -970.823 3905.08 915.592 
-860.03 3252.67 297.941 -1014.65 4434.75 923.068 -1038.33 4695.73 949.116 
-670.238 -348.014 -405.944 -476.273 -12.1737 -1200 -658.504 -1017.33 -342.158 
-468.018 -206.29 -1200 -586.666 -846.559 -1200 -1177.82 6463.66 905.752 
-1180.86 6528.09 906.376 -1168.91 6823.94 593.08 -1183.99 6604.67 901.268 
-1191.54 6828.44 866.924 -857.48 -796.88 279.581 -1021.16 -1371.07 921.38 
-1002.08 -826.069 969.4 -1003.17 -843.831 969.616 -792.057 -1859.01 -820.636 
-1038.47 -1933.98 855.892 -857.48 -796.88 279.581 -1036.28 -1845.33 868.896 
-1035.8 -1815.03 874.672 -1061.16 -2071.19 918.156 -1052.56 -1997.66 901.88 
-1069.42 -2159.4 929.884 -1050.34 -1989.52 895.292 -1046.55 -1975.64 884.064 
-1021.16 -1371.07 921.38 -1020.91 -1238.76 949.56 -1009.35 -944.2 970.836 
-1020.8 -1182.1 961.628 -1020.79 -1175.89 962.948 -1027.67 -1561.37 902.8 
-1027.41 -1551.81 904.064 -857.48 -796.88 279.581 -1182.65 6566.07 906.744 
-1183.32 6585.34 904.008 -1180.86 6528.09 906.376 -1183.99 6604.67 901.268 
-975.407 7495 -1117.6 -952.09 6284.7 -1200 -1018.1 7179.45 -866.48 
-1117.22 6451.13 -252.435 -1168.91 6823.94 593.08 -1128.66 5278.85 975.984 
-1133.11 5380.79 972.564 -1144.39 5668.91 947.228 -1143.81 5651.95 949.824 
-991.272 404.988 1245.1 -961.983 0 1000 -997.681 330.76 1244.57 
-999.877 305.326 1244.39 -850.287 2553.36 812.768 -733.836 1820.25 270.393 
-846.194 2471.06 809.5 -846.138 2469.94 809.456 -860.03 3252.67 297.941 
-683.287 2647.5 -210.992 -866.234 2729.42 820.6 -865.527 2725.27 820.176 
-953.653 3710.73 901.176 -954.217 3716.99 901.756 -860.03 3252.67 297.941 
-961.207 3794.59 908.948 -1174.85 7260.02 703.796 -1187.36 7030.08 834.36 
-1175.27 7257.76 708.776 -1176.59 7250.85 724.036 -1034.33 -116.289 1247.4 
-1027.03 2.41747 1246.01 -1034.01 -119.949 1245.4 -1033.98 -120.312 1245.2 
-1067.3 7495 -207.372 -1030.64 7495 -484.84 -1168.91 6823.94 593.08 
-1018.1 7179.45 -866.48 -953.653 3710.73 901.176 -860.03 3252.67 297.941 
-925.64 3390.08 880.76 -912.041 3234.42 870.848 -1027.03 2.41747 1246.01 
-1002.07 279.872 1244.21 -961.983 0 1000 -999.877 305.326 1244.39 
-1067.72 -2495 847.284 -1067.71 -2494.75 847.396 -1045.01 -2495 752.78 
-1067.68 -2494.31 847.592 -792.057 -1859.01 -820.636 -1067.85 -2490.78 850.188 
-1165.11 6194.04 903.152 -1171.4 6327.55 904.44 -1168.91 6823.94 593.08 
-1177.82 6463.66 905.752 -919.935 1350.63 982.052 -961.983 0 1000 
-929.64 1201.12 1014.74 -937.991 1092.22 1046.33 -1048.35 4807.46 959.008 
-1049.03 4814.78 959.916 -1065.53 4999.63 975.476 -1058.76 4922.77 969.98 
-872.472 2797.96 827.656 -892.664 3024.82 846.092 -860.03 3252.67 297.941 
-907.8 3185.88 867.756 -912.041 3234.42 870.848 -1049.03 4814.78 959.916 
-1052.03 4847.03 963.916 -1058.76 4922.77 969.98 -1053.17 4859.29 965.44 
-1039.78 4711.83 950.652 -860.03 3252.67 297.941 -1039.42 4707.75 950.312 
-1038.33 4695.73 949.116 -1113.84 5212.12 977.716 -1125.29 5262.5 976.42 
-1144.39 5668.91 947.228 -1128.16 5275.12 976.096 -1190.82 6863.5 861.276 
-1190.21 6892.65 856.58 -1168.91 6823.94 593.08 -1152.13 7379.32 440.06 
-1114.84 7495 152.382 -945.46 5228.33 -1200 -932.875 5049.82 -1200 
-1194.87 5787.53 157.933 -1102.41 5080.17 -117.476 -1144.39 5668.91 947.228 
-1113.84 5212.12 977.716 -1035.07 -1767.87 883.656 -1036.96 -1751.62 897.208 
-1033.14 -1662.39 902.444 -1037.67 -1747.35 900.804 -1038.09 -1730.19 906.184 
-1038.83 -1740.3 906.74 -644.727 -2098.7 -1200 -579.007 -2397.86 -1200 
-1045.01 -2495 752.78 -867.935 -2495 50 -846.02 2466.09 809.772 
-846.103 2469.24 809.428 -733.836 1820.25 270.393 -846.138 2469.94 809.456 
-961.897 855.028 1149.89 -956.83 905.304 1127.94 -961.983 0 1000 
-937.991 1092.22 1046.33 -1085.55 -2338.97 951.516 -1085.33 -2369.57 949.556 
-1085.6 -2340.5 951.72 -1085.95 -2353.72 953.452 -670.238 -348.014 -405.944 
-658.504 -1017.33 -342.158 -857.48 -796.88 279.581 -792.057 -1859.01 -820.636 
-650.619 3185.64 -1200 -860.03 3252.67 297.941 -814.436 4239.13 -618.812 
-1065.53 4999.63 975.476 -1065.55 4999.94 975.5 -1065.86 5001.27 975.608 
-1076.93 5049.8 979.592 -1113.84 5212.12 977.716 -1082.9 5075.97 981.74 
-1080.02 -2413.01 918.212 -1085.52 -2337.84 951.372 -1070.81 -2482.21 864.048 
-1069.5 -2485.04 858.488 -1143.81 5651.95 949.824 -1133.11 5380.79 972.564 
-1142.75 5620.62 954.616 -1139.95 5537.69 967.3 -1187.61 7012.87 835.892 
-1162.3 7325.91 558.192 -1190.21 6892.65 856.58 -1159.17 7342.36 521.816 
-1152.13 7379.32 440.06 -1010.15 -481.765 1075.68 -961.983 0 1000 
-1008.7 -538.416 1057.71 -1006.96 -606.128 1036.24 -1069.5 -2485.04 858.488 
-1085.52 -2337.84 951.372 -1068.45 -2487.31 854.036 -1085.4 -2336.83 951.128 
-1085.11 -2334.46 950.552 -798.645 -389.504 458.552 -961.983 0 1000 
-720.654 142.664 -14.2062 -729.851 750.811 543.6 -1187.36 7030.08 834.36 
-1184.98 7206.69 821.472 -1176.59 7250.85 724.036 -989.75 434.102 1245.11 
-961.983 0 1000 -990.268 416.618 1245.18 -991.272 404.988 1245.1 
-586.666 -846.559 -1200 -644.727 -2098.7 -1200 -792.057 -1859.01 -820.636 
-1045.01 -2495 752.78 -839.758 4682.18 -1200 -714.366 3690.03 -1200 
-814.436 4239.13 -618.812 -650.619 3185.64 -1200 -944.71 5502.48 -1200 
-945.46 5228.33 -1200 -1194.87 5787.53 157.933 -1030.64 7495 -484.84 
-975.407 7495 -1117.6 -1018.1 7179.45 -866.48 -814.436 4239.13 -618.812 
-1065.55 4999.94 975.5 -1102.41 5080.17 -117.476 -1065.58 5000.01 975.504 
-1065.8 5000.93 975.58 -932.875 5049.82 -1200 -839.758 4682.18 -1200 
-1102.41 5080.17 -117.476 -814.436 4239.13 -618.812 -866.234 2729.42 820.6 
-872.472 2797.96 827.656 -860.03 3252.67 297.941 -983.304 642.626 1242.62 
-971.968 755.109 1193.51 -961.983 0 1000 -961.897 855.028 1149.89 
-1033.98 -120.312 1245.2 -1027.03 2.41747 1246.01 -1018.94 -295.256 1149.9 
-961.983 0 1000 -1018.55 -299.733 1147.46 -1070.81 -2482.21 864.048 
-1071.74 -2477.75 869.46 -1080.02 -2413.01 918.212 -1072.61 -2473.58 874.508 
-1080.19 -2428.37 918.876 -1171.44 7277.96 664.2 -1187.36 7030.08 834.36 
-1173.32 7268.02 686.132 -1174.85 7260.02 703.796 -1147.84 5757.82 939.088 
-1150.72 5831.94 932.3 -1168.91 6823.94 593.08 -1155.66 5956.23 922.296 
-1113.84 5212.12 977.716 -1102.41 5080.17 -117.476 -1065.86 5001.27 975.608 
-1065.79 5000.96 975.584 -847.192 2229.37 835.568 -841.836 2308.12 827.064 
-729.851 750.811 543.6 -733.836 1820.25 270.393 -696.453 1565.03 -9.3478 
-919.935 1350.63 982.052 -913.171 1454.82 959.276 -961.983 0 1000 
-909.094 1517.62 945.548 -860.03 3252.67 297.941 -1039.78 4711.83 950.652 
-1065.53 4999.63 975.476 -867.935 -2495 50 -579.007 -2397.86 -1200 
-712.883 -2495 -565.368 -552.978 -2495 -1200 -1037.24 -1906.48 857.244 
-1036.88 -1883.8 861.568 -1036.28 -1845.33 868.896 -1052.56 -1997.66 901.88 
-1061.16 -2071.19 918.156 -1055.18 -2007.27 909.656 -1128.23 5275.72 976.076 
-1128.66 5278.85 975.984 -1144.39 5668.91 947.228 -1038.47 -1933.98 855.892 
-1068.45 -2487.31 854.036 -1046.55 -1975.64 884.064 -1069.42 -2159.4 929.884 
-1009.35 -944.2 970.836 -1008.62 -932.349 970.692 -1021.16 -1371.07 921.38 
-1067.3 7495 -207.372 -1168.91 6823.94 593.08 -1101.31 7495 50 
-1114.84 7495 152.382 -841.836 2308.12 827.064 -846.02 2466.09 809.772 
-733.836 1820.25 270.393 -658.504 -1017.33 -342.158 -586.666 -846.559 -1200 
-792.057 -1859.01 -820.636 -1190.82 6863.5 861.276 -1168.91 6823.94 593.08 
-1191.54 6828.44 866.924 -1033.14 -1662.39 902.444 -1031.82 -1642.28 901.388 
-1035.07 -1767.87 883.656 -1065.8 5000.93 975.58 -1065.79 5000.96 975.584 
-1102.41 5080.17 -117.476 -960.663 7495 -1200 -952.09 6284.7 -1200 
-975.407 7495 -1117.6 
LINES 84 252
2 0 1 
2 1 2 
2 2 3 
2 3 4 
2 4 5 
2 5 6 
2 6 7 
2 7 8 
2 8 9 
2 9 10 
2 10 11 
2 11 12 
2 12 13 
2 13 14 
2 14 15 
2 15 16 
2 16 17 
2 17 18 
2 18 19 
2 19 20 
2 20 21 
2 21 22 
2 22 23 
2 23 24 
2 24 25 
2 25 26 
2 26 27 
2 27 28 
2 29 30 
2 30 31 
2 31 32 
2 32 33 
2 33 34 
2 34 35 
2 35 36 
2 36 37 
2 37 38 
2 38 39 
2 39 40 
2 40 41 
2 42 43 
2 43 44 
2 44 45 
2 45 46 
2 46 47 
2 47 48 
2 48 49 
2 49 50 
2 50 51 
2 51 52 
2 52 53 
2 53 54 
2 54 55 
2 55 56 
2 56 57 
2 57 58 
2 58 59 
2 59 60 
2 60 61 
2 61 62 
2 62 63 
2 63 64 
2 64 65 
2 65 66 
2 66 67 
2 67 68 
2 68 69 
2 69 70 
2 70 71 
2 71 72 
2 72 73 
2 73 74 
2 74 75 
2 75 76 
2 76 77 
2 77 78 
2 78 79 
2 79 80 
2 80 81 
2 81 82 
2 82 83 
2 83 84 
2 84 85 
2 85 86 

POLYGONS 242 968
3 87 88 89 
3 88 89 90 
3 89 90 91 
3 92 93 94 
3 93 94 95 
3 94 95 96 
3 97 98 99 
3 98 99 100 
3 101 102 103 
3 102 103 104 
3 103 104 105 
3 104 105 106 
3 107 108 109 
3 108 109 110 
3 109 110 111 
3 112 113 114 
3 113 114 115 
3 116 117 118 
3 117 118 119 
3 118 119 120 
3 119 120 121 
3 122 123 124 
3 123 124 125 
3 126 127 128 
3 127 128 129 
3 130 131 132 
3 131 132 133 
3 132 133 134 
3 133 134 135 
3 134 135 136 
3 137 138 139 
3 138 139 140 
3 139 140 141 
3 142 143 144 
3 143 144 145 
3 144 145 146 
3 145 146 147 
3 146 147 148 
3 147 148 149 
3 148 149 150 
3 149 150 151 
3 152 153 154 
3 153 154 155 
3 156 157 158 
3 157 158 159 
3 160 161 162 
3 161 162 163 
3 162 163 164 
3 165 166 167 
3 166 167 168 
3 167 168 169 
3 170 171 172 
3 171 172 173 
3 174 175 176 
3 175 176 177 
3 176 177 178 
3 177 178 179 
3 178 179 180 
3 179 180 181 
3 180 181 182 
3 181 182 183 
3 182 183 184 
3 183 184 185 
3 186 187 188 
3 187 188 189 
3 188 189 190 
3 191 192 193 
3 192 193 194 
3 195 196 197 
3 196 197 198 
3 197 198 199 
3 200 201 202 
3 201 202 203 
3 202 203 204 
3 203 204 205 
3 204 205 206 
3 205 206 207 
3 206 207 208 
3 209 210 211 
3 210 211 212 
3 213 214 215 
3 214 215 216 
3 215 216 217 
3 218 219 220 
3 219 220 221 
3 220 221 222 
3 223 224 225 
3 224 225 226 
3 225 226 227 
3 228 229 230 
3 229 230 231 
3 230 231 232 
3 233 234 235 
3 234 235 236 
3 235 236 237 
3 238 239 240 
3 239 240 241 
3 242 243 244 
3 243 244 245 
3 244 245 246 
3 247 248 249 
3 248 249 250 
3 249 250 251 
3 252 253 254 
3 253 254 255 
3 254 255 256 
3 257 258 259 
3 260 261 262 
3 261 262 263 
3 264 265 266 
3 265 266 267 
3 266 267 268 
3 269 270 271 
3 270 271 272 
3 273 274 275 
3 274 275 276 
3 277 278 279 
3 278 279 280 
3 281 282 283 
3 282 283 284 
3 285 286 287 
3 286 287 288 
3 289 290 291 
3 290 291 292 
3 293 294 295 
3 294 295 296 
3 297 298 299 
3 298 299 300 
3 301 302 303 
3 302 303 304 
3 305 306 307 
3 306 307 308 
3 309 310 311 
3 310 311 312 
3 311 312 313 
3 312 313 314 
3 315 316 317 
3 316 317 318 
3 319 320 321 
3 320 321 322 
3 323 324 325 
3 324 325 326 
3 327 328 329 
3 328 329 330 
3 329 330 331 
3 332 333 334 
3 333 334 335 
3 336 337 338 
3 337 338 339 
3 340 341 342 
3 341 342 343 
3 344 345 346 
3 345 346 347 
3 346 347 348 
3 349 350 351 
3 350 351 352 
3 351 352 353 
3 352 353 354 
3 355 356 357 
3 356 357 358 
3 357 358 359 
3 358 359 360 
3 361 362 363 
3 362 363 364 
3 365 366 367 
3 366 367 368 
3 369 370 371 
3 370 371 372 
3 373 374 375 
3 374 375 376 
3 377 378 379 
3 378 379 380 
3 381 382 383 
3 382 383 384 
3 383 384 385 
3 386 387 388 
3 387 388 389 
3 390 391 392 
3 391 392 393 
3 394 395 396 
3 395 396 397 
3 398 399 400 
3 399 400 401 
3 400 401 402 
3 403 404 405 
3 404 405 406 
3 407 408 409 
3 408 409 410 
3 409 410 411 
3 412 413 414 
3 413 414 415 
3 416 417 418 
3 419 420 421 
3 420 421 422 
3 423 424 425 
3 424 425 426 
3 427 428 429 
3 428 429 430 
3 431 432 433 
3 434 435 436 
3 437 438 439 
3 438 439 440 
3 439 440 441 
3 442 443 444 
3 443 444 445 
3 446 447 448 
3 449 450 451 
3 450 451 452 
3 453 454 455 
3 454 455 456 
3 455 456 457 
3 458 459 460 
3 459 460 461 
3 460 461 462 
3 463 464 465 
3 464 465 466 
3 467 468 469 
3 468 469 470 
3 471 472 473 
3 472 473 474 
3 475 476 477 
3 476 477 478 
3 477 478 479 
3 480 481 482 
3 481 482 483 
3 484 485 486 
3 487 488 489 
3 488 489 490 
3 491 492 493 
3 494 495 496 
3 497 498 499 
3 500 501 502 
3 501 502 503 
3 504 505 506 
3 507 508 509 
3 508 509 510 
3 511 512 513 
3 514 515 516 
3 517 518 519 
3 520 521 522 
3 523 524 525 
3 526 527 528 

POINT_DATA 529
COLOR_SCALARS VRMLColor 3
1 0 0 1 0 0 1 0 0 
1 0 0 1 0 0 
1 0 0 1 0 0 
1 0 0 1 0 0 
1 0 0 1 0 0 
1 0 0 1 0 0 
1 0 0 1 0 0 
1 0 0 1 0 0 
1 0 0 1 0 0 
1 0 0 1 0 0 
1 0 0 1 0 0 
1 0 0 1 0 0 
1 0 0 1 0 0 
1 0 0 1 0 0 
1 0 0 1 0 0 
1 0 0 1 0 0 
1 0 0 1 0 0 
1 0 0 1 0 0 
1 0 0 1 0 0 
1 0 0 1 0 0 
1 0 0 1 0 0 
1 0 0 1 0 0 
1 0 0 1 0 0 
1 0 0 1 0 0 
1 0 0 1 0 0 
1 0 0 1 0 0 
1 0 0 1 0 0 
1 0 0 1 0 0 
1 0 0 1 0 0 
1 0 0 1 0 0 
1 0 0 1 0 0 
1 0 0 1 0 0 
1 0 0 1 0 0 
1 0 0 1 0 0 
1 0 0 1 0 0 
1 0 0 1 0 0 
1 0 0 1 0 0 
1 0 0 1 0 0 
1 0 0 1 0 0 
1 0 0 1 0 0 
1 0 0 1 0 0 
1 0 0 1 0 0 
1 0 0 1 0 0 
0.498039 0 0.247059 0.498039 0 0.247059 
0.498039 0 0.247059 0.498039 0 0.247059 
0.498039 0 0.247059 0.498039 0 0.247059 
0.498039 0 0.247059 0.498039 0 0.247059 
0.498039 0 0.247059 0.498039 0 0.247059 
0.498039 0 0.247059 0.498039 0 0.247059 
0.498039 0 0.247059 0.498039 0 0.247059 
0.498039 0 0.247059 0.498039 0 0.247059 
0.498039 0 0.247059 0.498039 0 0.247059 
0.498039 0 0.247059 0.498039 0 0.247059 
0.498039 0 0.247059 0.498039 0 0.247059 
0.498039 0 0.247059 0.498039 0 0.247059 
0.498039 0 0.247059 0.498039 0 0.247059 
0.498039 0 0.247059 0.498039 0 0.247059 
0.498039 0 0.247059 0.498039 0 0.247059 
0.498039 0 0.247059 0.498039 0 0.247059 
0.498039 0 0.247059 0.498039 0 0.247059 
0.498039 0 0.247059 0.498039 0 0.247059 
0.498039 0 0.247059 0.498039 0 0.247059 
0.498039 0 0.247059 0.498039 0 0.247059 
0.498039 0 0.247059 0.498039 0 0.247059 
0.498039 0 0.247059 0.498039 0 0.247059 
0.498039 0 0.247059 0.498039 0 0.247059 
0.498039 0 0.247059 0.498039 0 0.247059 
0.498039 0 0.247059 0.498039 0 0.247059 
0.498039 0 0.247059 0.498039 0 0.247059 
0.498039 0 0.247059 0.498039 0 0.247059 
0.498039 0 0.247059 0.498039 0 0.247059 
0.498039 0 0.247059 0.498039 0 0.247059 
0.498039 0 0.247059 0.498039 0 0.247059 
0.498039 0 0.247059 0.498039 0 0.247059 
0.498039 0 0.247059 0.498039 0 0.247059 
0.498039 0 0.247059 0.498039 0 0.247059 
0.498039 0 0.247059 0.498039 0 0.247059 
0.498039 0 0.247059 0.498039 0 0.247059 
0.498039 0 0.247059 0.498039 0 0.247059 
0.498039 0 0.247059 0.498039 0 0.247059 
0.498039 0 0.247059 0.498039 0 0.247059 
0.498039 0 0.247059 0.498039 0 0.247059 
0.498039 0 0.247059 0.498039 0 0.247059 
0.498039 0 0.247059 0.498039 0 0.247059 
0.498039 0 0.247059 0.498039 0 0.247059 
0.498039 0 0.247059 0.498039 0 0.247059 
0.498039 0 0.247059 0.498039 0 0.247059 
0.498039 0 0.247059 0.498039 0 0.247059 
0.498039 0 0.247059 0.498039 0 0.247059 
0.498039 0 0.247059 0.498039 0 0.247059 
0.498039 0 0.247059 0.498039 0 0.247059 
0.498039 0 0.247059 0.498039 0 0.247059 
0.498039 0 0.247059 0.498039 0 0.247059 
0.498039 0 0.247059 0.498039 0 0.247059 
0.498039 0 0.247059 0.498039 0 0.247059 
0.498039 0 0.247059 0.498039 0 0.247059 
0.498039 0 0.247059 0.498039 0 0.247059 
0.498039 0 0.247059 0.498039 0 0.247059 
0.498039 0 0.247059 0.498039 0 0.247059 
0.498039 0 0.247059 0.498039 0 0.247059 
0.498039 0 0.247059 0.498039 0 0.247059 
0.498039 0 0.247059 0.498039 0 0.247059 
0.498039 0 0.247059 0.498039 0 0.247059 
0.498039 0 0.247059 0.498039 0 0.247059 
0.498039 0 0.247059 0.498039 0 0.247059 
0.498039 0 0.247059 0.498039 0 0.247059 
0.498039 0 0.247059 0.498039 0 0.247059 
0.498039 0 0.247059 0.498039 0 0.247059 
0.498039 0 0.247059 0.498039 0 0.247059 
0.498039 0 0.247059 0.498039 0 0.247059 
0.498039 0 0.247059 0.498039 0 0.247059 
0.498039 0 0.247059 0.498039 0 0.247059 
0.498039 0 0.247059 0.498039 0 0.247059 
0.498039 0 0.247059 0.498039 0 0.247059 
0.498039 0 0.247059 0.498039 0 0.247059 
0.498039 0 0.247059 0.498039 0 0.247059 
0.498039 0 0.247059 0.498039 0 0.247059 
0.498039 0 0.247059 0.498039 0 0.247059 
0.498039 0 0.247059 0.498039 0 0.247059 
0.498039 0 0.247059 0.498039 0 0.247059 
0.498039 0 0.247059 0.498039 0 0.247059 
0.498039 0 0.247059 0.498039 0 0.247059 
0.498039 0 0.247059 0.498039 0 0.247059 
0.498039 0 0.247059 0.498039 0 0.247059 
0.498039 0 0.247059 0.498039 0 0.247059 
0.498039 0 0.247059 0.498039 0 0.247059 
0.498039 0 0.247059 0.498039 0 0.247059 
0.498039 0 0.247059 0.498039 0 0.247059 
0.498039 0 0.247059 0.498039 0 0.247059 
0.498039 0 0.247059 0.498039 0 0.247059 
0.498039 0 0.247059 0.498039 0 0.247059 
0.498039 0 0.247059 0.498039 0 0.247059 
0.498039 0 0.247059 0.498039 0 0.247059 
0.498039 0 0.247059 0.498039 0 0.247059 
0.498039 0 0.247059 0.498039 0 0.247059 
0.498039 0 0.247059 0.498039 0 0.247059 
0.498039 0 0.247059 0.498039 0 0.247059 
0.498039 0 0.247059 0.498039 0 0.247059 
0.498039 0 0.247059 0.498039 0 0.247059 
0.498039 0 0.247059 0.498039 0 0.247059 
0.498039 0 0.247059 0.498039 0 0.247059 
0.498039 0 0.247059 0.498039 0 0.247059 
0.498039 0 0.247059 0.498039 0 0.247059 
0.498039 0 0.247059 0.498039 0 0.247059 
0.498039 0 0.247059 0.498039 0 0.247059 
0.498039 0 0.247059 0.498039 0 0.247059 
0.498039 0 0.247059 0.498039 0 0.247059 
0.498039 0 0.247059 0.498039 0 0.247059 
0.498039 0 0.247059 0.498039 0 0.247059 
0.498039 0 0.247059 0.498039 0 0.247059 
0.498039 0 0.247059 0.498039 0 0.247059 
0.498039 0 0.247059 0.498039 0 0.247059 
0.498039 0 0.247059 0.498039 0 0.247059 
0.498039 0 0.247059 0.498039 0 0.247059 
0.498039 0 0.247059 0.498039 0 0.247059 
0.498039 0 0.247059 0.498039 0 0.247059 
0.498039 0 0.247059 0.498039 0 0.247059 
0.498039 0 0.247059 0.498039 0 0.247059 
0.498039 0 0.247059 0.498039 0 0.247059 
0.498039 0 0.247059 0.498039 0 0.247059 
0.498039 0 0.247059 0.498039 0 0.247059 
0.498039 0 0.247059 0.498039 0 0.247059 
0.498039 0 0.247059 0.498039 0 0.247059 
0.498039 0 0.247059 0.498039 0 0.247059 
0.498039 0 0.247059 0.498039 0 0.247059 
0.498039 0 0.247059 0.498039 0 0.247059 
0.498039 0 0.247059 0.498039 0 0.247059 
0.498039 0 0.247059 0.498039 0 0.247059 
0.498039 0 0.247059 0.498039 0 0.247059 
0.498039 0 0.247059 0.498039 0 0.247059 
0.498039 0 0.247059 0.498039 0 0.247059 
0.498039 0 0.247059 0.498039 0 0.247059 
0.498039 0 0.247059 0.498039 0 0.247059 
0.498039 0 0.247059 0.498039 0 0.247059 
0.498039 0 0.247059 0.498039 0 0.247059 
0.498039 0 0.247059 0.498039 0 0.247059 
0.498039 0 0.247059 0.498039 0 0.247059 
0.498039 0 0.247059 0.498039 0 0.247059 
0.498039 0 0.247059 0.498039 0 0.247059 
0.498039 0 0.247059 0.498039 0 0.247059 
0.498039 0 0.247059 0.498039 0 0.247059 
0.498039 0 0.247059 0.498039 0 0.247059 
0.498039 0 0.247059 0.498039 0 0.247059 
0.498039 0 0.247059 0.498039 0 0.247059 
0.498039 0 0.247059 0.498039 0 0.247059 
0.498039 0 0.247059 0.498039 0 0.247059 
0.498039 0 0.247059 0.498039 0 0.247059 
0.498039 0 0.247059 0.498039 0 0.247059 
0.498039 0 0.247059 0.498039 0 0.247059 
0.498039 0 0.247059 0.498039 0 0.247059 
0.498039 0 0.247059 0.498039 0 0.247059 
0.498039 0 0.247059 0.498039 0 0.247059 
0.498039 0 0.247059 0.498039 0 0.247059 
0.498039 0 0.247059 0.498039 0 0.247059 
0.498039 0 0.247059 0.498039 0 0.247059 
0.498039 0 0.247059 0.498039 0 0.247059 
0.498039 0 0.247059 0.498039 0 0.247059 
0.498039 0 0.247059 0.498039 0 0.247059 
0.498039 0 0.247059 0.498039 0 0.247059 
0.498039 0 0.247059 0.498039 0 0.247059 
0.498039 0 0.247059 0.498039 0 0.247059 
0.498039 0 0.247059 0.498039 0 0.247059 
0.498039 0 0.247059 0.498039 0 0.247059 
0.498039 0 0.247059 0.498039 0 0.247059 
0.498039 0 0.247059 0.498039 0 0.247059 
0.498039 0 0.247059 0.498039 0 0.247059 
0.498039 0 0.247059 0.498039 0 0.247059 
0.498039 0 0.247059 0.498039 0 0.247059 
0.498039 0 0.247059 0.498039 0 0.247059 
0.498039 0 0.247059 0.498039 0 0.247059 
0.498039 0 0.247059 0.498039 0 0.247059 
0.498039 0 0.247059 0.498039 0 0.247059 
0.498039 0 0.247059 0.498039 0 0.247059 
0.498039 0 0.247059 0.498039 0 0.247059 
0.498039 0 0.247059 0.498039 0 0.247059 
0.498039 0 0.247059 0.498039 0 0.247059 
0.498039 0 0.247059 0.498039 0 0.247059 
0.498039 0 0.247059 0.498039 0 0.247059 
0.498039 0 0.247059 0.498039 0 0.247059 
0.498039 0 0.247059 0.498039 0 0.247059 
0.498039 0 0.247059 0.498039 0 0.247059 
0.498039 0 0.247059 0.498039 0 0.247059 
0.498039 0 0.247059 0.498039 0 0.247059 
0.498039 0 0.247059 0.498039 0 0.247059 
0.498039 0 0.247059 0.498039 0 0.247059 
0.498039 0 0.247059 0.498039 0 0.247059 
0.498039 0 0.247059 0.498039 0 0.247059 
0.498039 0 0.247059 0.498039 0 0.247059 
0.498039 0 0.247059 0.498039 0 0.247059 
0.498039 0 0.247059 0.498039 0 0.247059 
0.498039 0 0.247059 0.498039 0 0.247059 
0.498039 0 0.247059 0.498039 0 0.247059 
0.498039 0 0.247059 0.498039 0 0.247059 
0.498039 0 0.247059 0.498039 0 0.247059 
0.498039 0 0.247059 0.498039 0 0.247059 
0.498039 0 0.247059 0.498039 0 0.247059 
0.498039 0 0.247059 0.498039 0 0.247059 
0.498039 0 0.247059 0.498039 0 0.247059 
0.498039 0 0.247059 0.498039 0 0.247059 
0.498039 0 0.247059 0.498039 0 0.247059 
0.498039 0 0.247059 0.498039 0 0.247059 
0.498039 0 0.247059 0.498039 0 0.247059 
0.498039 0 0.247059 0.498039 0 0.247059 
0.498039 0 0.247059 0.498039 0 0.247059 
0.498039 0 0.247059 0.498039 0 0.247059 
0.498039 0 0.247059 0.498039 0 0.247059 
0.498039 0 0.247059 0.498039 0 0.247059 
0.498039 0 0.247059 0.498039 0 0.247059 
0.498039 0 0.247059 0.498039 0 0.247059 
0.498039 0 0.247059 0.498039 0 0.247059 
0.498039 0 0.247059 0.498039 0 0.247059 
0.498039 0 0.247059 0.498039 0 0.247059 
0.498039 0 0.247059 0.498039 0 0.247059 
0.498039 0 0.247059 0.498039 0 0.247059 
0.498039 0 0.247059 0.498039 0 0.247059 
0.498039 0 0.247059 0.498039 0 0.247059 
0.498039 0 0.247059 0.498039 0 0.247059 
0.498039 0 0.247059 0.498039 0 0.247059 
0.498039 0 0.247059 0.498039 0 0.247059 
0.498039 0 0.247059 0.498039 0 0.247059 
0.498039 0 0.247059 0.498039 0 0.247059 
0.498039 0 0.247059 0.498039 0 0.247059 
0.498039 0 0.247059 0.498039 0 0.247059 
0.498039 0 0.247059 0.498039 0 0.247059 

