# vtk DataFile Version 3.0
vtk output
ASCII
DATASET POLYDATA
POINTS 977 float
4974.79 457.624 1141.5 4974.79 457.704 1141.33 4974.79 457.787 1141.14 
4974.76 458.212 1140.2 4974.46 464.418 1126.44 4974.36 466.516 1121.78 
4974.35 466.615 1121.56 4974.35 466.698 1121.38 4974.28 468.024 1118.44 
4974.13 471.162 1111.48 4973.43 485.335 1080.05 4972.53 503.646 1039.44 
4972.52 503.912 1038.85 4972.43 505.62 1035.06 4972.42 505.86 1034.53 
4972.4 506.203 1033.76 4972.36 507.161 1031.64 4972.3 508.287 1029.14 
4971.67 521.135 1000.65 4971.06 533.513 973.2 4971.02 534.223 971.624 
4970.8 538.698 961.7 4970.84 538.992 960.948 4971.81 547.363 939.576 
4971.91 548.258 937.288 4971.95 548.595 936.428 4971.95 548.607 936.396 
4975.9 582.655 849.46 4979.91 721.554 519.38 4980.31 735.138 487.1 
4980.46 740.543 474.256 4980.58 744.609 464.592 4980.64 746.67 459.696 
4980.64 746.838 459.296 4983.05 830.18 261.24 4983.57 848.183 218.458 
4984.23 871.136 163.911 4985.03 883.635 133.325 4985.19 886.184 127.088 
4985.4 889.443 119.112 4986.28 903.359 85.0588 4986.42 905.545 79.7096 
4986.87 912.507 62.6728 4991.04 978.111 -97.8636 4995 1040.28 -250 
4995 1040.28 -250 4995 1100.34 -389.199 4995 1450.16 -1200 
4635.52 1765.23 -1200 4343.01 2126.58 -1200 3422.51 3366.01 -1200 
3342.03 3442.16 -1200 2750.21 3899.87 -1200 2241.43 4518.49 -1200 
2202.91 4575.56 -1200 2115.86 4650.85 -1200 1507.18 5170.56 -1200 
1419.14 5245.74 -1200 1195.85 5434.8 -1200 1187.53 5444.38 -1200 
1177.73 5452.38 -1200 938.958 5779.06 -1200 849.283 5901.47 -1200 
845.726 5905.96 -1200 623.558 6213.25 -1200 424.122 6490.26 -1200 
420.327 6494.65 -1200 416.191 6500.91 -1200 401.412 6514.86 -1200 
-519.106 7495 -1200 -539.737 7495 -1162.7 -775.176 7495 -581.692 
-840.219 7495 -426.412 -846.472 7495 -411.484 -923.235 7495 -250 
-949.714 7495 -194.298 -1065.84 7495 50 -1077.44 7495 74.3852 
-1222.09 7495 376.046 -1335.36 7495 612.28 -1362.82 7495 669.412 
-1363.39 7495 670.604 -1363.82 7495 671.496 -1364.25 7495 672.392 
-1364.68 7495 673.292 -1366.01 7495 676.06 -1374.81 7495 694.372 
-1374.95 7495 694.672 -1375.08 7495 694.948 -1375.11 7495 695 
-1375.15 7495 695.08 -1375.49 7495 695.788 -1375.7 7495 696.22 
-1375.75 7495 696.34 -1375.79 7495 696.408 -1375.83 7495 696.504 
-1376.18 7495 697.22 -1376.53 7495 697.948 -1376.56 7495 698.016 
-1376.88 7495 698.708 -1376.99 7495 698.948 -1377.02 7495 699.008 
-1377.04 7495 699.044 -1377.48 7495 700 -1402.94 7495 754.74 
-1403.04 7495 754.968 -1403.15 7495 755.196 -1403.26 7495 755.428 
-1403.36 7495 755.66 -1403.73 7495 756.44 -1403.84 7495 756.68 
-1403.95 7495 756.924 -1404.07 7495 757.172 -1404.18 7495 757.42 
-1404.3 7495 757.672 -1404.42 7495 757.928 -1404.54 7495 758.184 
-1404.66 7495 758.44 -1404.78 7495 758.7 -1404.9 7495 758.964 
-1405.02 7495 759.228 -1405.15 7495 759.496 -1405.27 7495 759.764 
-1405.53 7495 760.312 -1405.67 7495 760.612 -1405.81 7495 760.916 
-1405.95 7495 761.224 -1406.1 7495 761.536 -1406.24 7495 761.848 
-1406.39 7495 762.164 -1406.54 7495 762.484 -1406.69 7495 762.808 
-1406.84 7495 763.136 -1406.99 7495 763.464 -1407.15 7495 763.8 
-1407.31 7495 764.136 -1407.46 7495 764.476 -1407.62 7495 764.82 
-1407.79 7495 765.168 -1407.95 7495 765.52 -1408.12 7495 765.876 
-1408.28 7495 766.236 -1408.45 7495 766.6 -1408.62 7495 766.964 
-1408.86 7495 767.484 -1408.89 7495 767.544 -1408.93 7495 767.624 
-1408.96 7495 767.688 -1409.13 7495 768.056 -1409.3 7495 768.428 
-1409.48 7495 768.804 -1409.65 7495 769.18 -1409.83 7495 769.564 
-1410.01 7495 769.952 -1410.19 7495 770.344 -1410.38 7495 770.74 
-1410.56 7495 771.14 -1410.75 7495 771.544 -1410.94 7495 771.956 
-1411.14 7495 772.372 -1411.33 7495 772.788 -1411.53 7495 773.216 
-1411.73 7495 773.644 -1411.93 7495 774.076 -1412.13 7495 774.516 
-1412.34 7495 774.964 -1412.55 7495 775.412 -1413.03 7495 776.432 
-1413.24 7495 776.9 -1413.46 7495 777.372 -1413.68 7495 777.852 
-1413.91 7495 778.336 -1414.14 7495 778.824 -1414.37 7495 779.32 
-1414.6 7495 779.824 -1414.84 7495 780.332 -1415.08 7495 780.848 
-1415.32 7495 781.372 -1415.57 7495 781.9 -1415.82 7495 782.436 
-1416.07 7495 782.98 -1416.33 7495 783.532 -1416.59 7495 784.088 
-1416.85 7495 784.652 -1417.11 7495 785.228 -1417.38 7495 785.808 
-1417.66 7495 786.396 -1417.94 7495 786.992 -1418.62 7495 788.472 
-1418.91 7495 789.092 -1419.2 7495 789.724 -1419.5 7495 790.36 
-1419.8 7495 791.008 -1420.11 7495 791.668 -1420.42 7495 792.332 
-1420.73 7495 793.008 -1421.05 7495 793.696 -1421.38 7495 794.392 
-1421.71 7495 795.1 -1422.04 7495 795.82 -1422.38 7495 796.548 
-1422.72 7495 797.288 -1423.07 7495 798.04 -1423.43 7495 798.8 
-1423.79 7495 799.576 -1424.14 7495 800.34 -1424.32 7495 800.728 
-1424.32 7495 800.728 -1313.83 7360.88 810.38 -1017.7 7006.51 835.872 
-955.536 6932.13 841.224 -929.937 6901.49 843.428 -824.573 6779.5 845.084 
-633.692 6565.99 834.52 -566.83 6487.12 838.22 -357.559 6240.25 849.792 
-307.958 6135.41 859.704 -293.16 6104.13 862.66 -234.306 5999.72 849.484 
-223.24 5980.08 847.008 -195.92 5931.62 840.892 -143.812 5837.38 831.46 
-87.687 5735.88 821.304 -66.7776 5695.27 821.004 -65.5823 5692.95 820.984 
-34.3885 5632.37 820.536 -30.8526 5622.17 820.604 -30.3791 5620.81 820.612 
-8.35423 5578.09 820.292 5.90496 5550.44 820.084 9.09274 5544.26 820.04 
12.7746 5537.37 819.728 17.1874 5529.11 819.356 128.364 5321.1 809.992 
153.774 5273.56 807.852 161.07 5259.9 807.236 276.52 5030.3 811.388 
280.233 5022.72 811.724 288.693 5005.45 812.484 291.098 5000.33 812.712 
292.98 4996.32 812.888 302.802 4988.93 813.168 323.865 4971.28 813.848 
329.502 4966.55 814.032 423.882 4887.45 817.084 554.642 4763.46 848.752 
603.703 4716.93 860.632 769.836 4559.39 900.868 780.285 4549.71 902.964 
789.094 4540.97 905.836 924.832 4404.09 954.264 984.638 4343.78 975.6 
1003.52 4324.74 982.34 1029.34 4298.71 991.548 1067.58 4260.14 1005.2 
1131.37 4192.79 1033.73 1171.76 4150.14 1051.8 1271.56 4044.76 1096.43 
1365.73 3945.32 1138.56 1396.62 3912.7 1152.38 1451.22 3854.57 1177.71 
1466.95 3837.82 1185.01 1474.26 3828.02 1192.26 1504.46 3791.52 1220.38 
1632.55 3644.23 1323.72 1661.05 3612.86 1346.17 1666.83 3606.5 1350.72 
1696.43 3573.92 1374.04 1784.41 3477.06 1443.37 1895.13 3355.18 1530.61 
1934.34 3324.29 1535.02 1988.91 3275.51 1543.02 2002.96 3262.95 1545.08 
2029.02 3243.35 1540.32 2219.32 3100.22 1505.51 2338.97 3010.23 1483.63 
2345.66 3005.2 1482.41 2361.33 2993.42 1479.54 2443.13 2931.89 1464.58 
2745.72 2737.42 1332.26 2836.63 2680.15 1289.8 2941.51 2614.09 1240.82 
3015.16 2567.7 1206.43 3032.91 2556.51 1198.14 3114.42 2514.28 1138.86 
3147.57 2495.2 1114.37 3167.8 2483.55 1099.43 3197.6 2457.98 1075.7 
3337.9 2298.59 1062.18 3378.36 2252.63 1058.28 3404.77 2222.62 1055.73 
3438.39 2184.43 1052.49 3632.1 1964.37 1033.81 3673.17 1918.23 1028.54 
3674.83 1916.37 1028.32 3686.12 1902.12 1030.82 3692.89 1892.66 1034.63 
3698.11 1885.68 1036.76 3720.16 1856.21 1045.77 3950.13 1554.48 1125.56 
4043.92 1431.42 1158.1 4208.75 1215.16 1215.3 4416.37 913.26 1361.64 
4427.3 900.877 1360.5 4439.57 886.97 1359.23 4481.07 839.951 1354.92 
4493.06 826.365 1353.68 4507.04 810.522 1352.22 4594.79 711.091 1343.12 
4620.19 679.232 1348.23 4624.06 675.645 1348.69 4665.58 637.114 1353.65 
4742.7 593.569 1297.9 4800.93 559.46 1258.66 4870.52 518.702 1211.77 
4974.79 457.624 1141.5 4971.91 548.258 937.288 4971.81 547.363 939.576 
4870.52 518.702 1211.77 4970.84 538.992 960.948 4970.8 538.698 961.7 
4974.46 464.418 1126.44 4974.76 458.212 1140.2 4870.52 518.702 1211.77 
4974.79 457.704 1141.33 4974.79 457.624 1141.5 1003.52 4324.74 982.34 
984.638 4343.78 975.6 1012.58 4375 872.4 924.832 4404.09 954.264 
789.094 4540.97 905.836 -566.83 6487.12 838.22 -342.119 6250 800 
-357.559 6240.25 849.792 -307.958 6135.41 859.704 2442.27 3125 1017.2 
2743.44 3892.71 -1175.09 2767.42 3180.87 185.38 3356.55 3406.45 -1150.81 
3157.11 2500 1089.6 4346.71 1937.67 -1012.97 3197.6 2457.98 1075.7 
3337.9 2298.59 1062.18 -1409.48 7495 768.804 -1409.3 7495 768.428 
-1313.83 7360.88 810.38 -1409.13 7495 768.056 -1408.96 7495 767.688 
-307.958 6135.41 859.704 -342.119 6250 800 -293.16 6104.13 862.66 
-234.306 5999.72 849.484 1466.95 3837.82 1185.01 1451.22 3854.57 1177.71 
1727.43 3750 944.8 1396.62 3912.7 1152.38 1365.73 3945.32 1138.56 
-1376.18 7495 697.22 -1375.83 7495 696.504 -1313.83 7360.88 810.38 
-1375.79 7495 696.408 -1375.75 7495 696.34 -1375.49 7495 695.788 
-1375.15 7495 695.08 -1313.83 7360.88 810.38 -1375.11 7495 695 
-1375.08 7495 694.948 623.558 6213.25 -1200 845.726 5905.96 -1200 
841.858 5903.07 -1189.32 849.283 5901.47 -1200 938.958 5779.06 -1200 
4972.3 508.287 1029.14 4972.36 507.161 1031.64 4870.52 518.702 1211.77 
4972.4 506.203 1033.76 4972.42 505.86 1034.53 -1410.19 7495 770.344 
-1410.01 7495 769.952 -1313.83 7360.88 810.38 -1409.83 7495 769.564 
-1409.65 7495 769.18 4208.75 1215.16 1215.3 4043.92 1431.42 1158.1 
4346.71 1937.67 -1012.97 3950.13 1554.48 1125.56 3720.16 1856.21 1045.77 
416.191 6500.91 -1200 420.327 6494.65 -1200 -151.042 6844.46 -556.144 
-5.48605 6391.11 -265.394 -342.119 6250 800 -24.6884 5980.82 472.34 
-22.1887 5625 800 387.369 6173.45 -636.54 841.858 5903.07 -1189.32 
623.558 6213.25 -1200 1419.14 5245.74 -1200 1507.18 5170.56 -1200 
2172.59 4546.19 -1109.36 2115.86 4650.85 -1200 2202.91 4575.56 -1200 
1696.43 3573.92 1374.04 1666.83 3606.5 1350.72 1727.43 3750 944.8 
1661.05 3612.86 1346.17 1632.55 3644.23 1323.72 -1407.46 7495 764.476 
-1407.31 7495 764.136 -1313.83 7360.88 810.38 -1407.15 7495 763.8 
-1406.99 7495 763.464 4972.42 505.86 1034.53 4972.43 505.62 1035.06 
4870.52 518.702 1211.77 4972.52 503.912 1038.85 4972.53 503.646 1039.44 
1171.76 4150.14 1051.8 1131.37 4192.79 1033.73 1012.58 4375 872.4 
1067.58 4260.14 1005.2 1029.34 4298.71 991.548 4979.91 721.554 519.38 
4975.9 582.655 849.46 4870.52 518.702 1211.77 4971.95 548.607 936.396 
4971.95 548.595 936.428 2338.97 3010.23 1483.63 1727.43 3750 944.8 
[...]
POINT_DATA 977
COLOR_SCALARS VRMLColor 3
1 0 0 1 0 0 1 0 0 
1 0 0 1 0 0 
1 0 0 1 0 0 
1 0 0 1 0 0 
1 0 0 1 0 0 
1 0 0 1 0 0 
1 0 0 1 0 0 
1 0 0 1 0 0 
1 0 0 1 0 0 
1 0 0 1 0 0 
1 0 0 1 0 0 
1 0 0 1 0 0 
1 0 0 1 0 0 
1 0 0 1 0 0 
1 0 0 1 0 0 
1 0 0 1 0 0 
1 0 0 1 0 0 
1 0 0 1 0 0 
1 0 0 1 0 0 
1 0 0 1 0 0 
1 0 0 1 0 0 
1 0 0 1 0 0 
1 0 0 1 0 0 
1 0 0 1 0 0 
1 0 0 1 0 0 
1 0 0 1 0 0 
1 0 0 1 0 0 
1 0 0 1 0 0 
1 0 0 1 0 0 
1 0 0 1 0 0 
1 0 0 1 0 0 
1 0 0 1 0 0 
1 0 0 1 0 0 
1 0 0 1 0 0 
1 0 0 1 0 0 
1 0 0 1 0 0 
1 0 0 1 0 0 
1 0 0 1 0 0 
1 0 0 1 0 0 
1 0 0 1 0 0 
1 0 0 1 0 0 
1 0 0 1 0 0 
1 0 0 1 0 0 
1 0 0 1 0 0 
1 0 0 1 0 0 
1 0 0 1 0 0 
1 0 0 1 0 0 
1 0 0 1 0 0 
1 0 0 1 0 0 
1 0 0 1 0 0 
1 0 0 1 0 0 
1 0 0 1 0 0 
1 0 0 1 0 0 
1 0 0 1 0 0 
1 0 0 1 0 0 
1 0 0 1 0 0 
1 0 0 1 0 0 
1 0 0 1 0 0 
1 0 0 1 0 0 
1 0 0 1 0 0 
1 0 0 1 0 0 
1 0 0 1 0 0 
1 0 0 1 0 0 
1 0 0 1 0 0 
1 0 0 1 0 0 
1 0 0 1 0 0 
1 0 0 1 0 0 
1 0 0 1 0 0 
1 0 0 1 0 0 
1 0 0 1 0 0 
1 0 0 1 0 0 
1 0 0 1 0 0 
1 0 0 1 0 0 
1 0 0 1 0 0 
1 0 0 1 0 0 
1 0 0 1 0 0 
1 0 0 1 0 0 
1 0 0 1 0 0 
1 0 0 1 0 0 
1 0 0 1 0 0 
1 0 0 1 0 0 
1 0 0 1 0 0 
1 0 0 1 0 0 
1 0 0 1 0 0 
1 0 0 1 0 0 
1 0 0 1 0 0 
1 0 0 1 0 0 
1 0 0 1 0 0 
1 0 0 1 0 0 
1 0 0 1 0 0 
1 0 0 1 0 0 
1 0 0 1 0 0 
1 0 0 1 0 0 
1 0 0 1 0 0 
1 0 0 1 0 0 
1 0 0 1 0 0 
1 0 0 1 0 0 
1 0 0 1 0 0 
1 0 0 1 0 0 
1 0 0 1 0 0 
1 0 0 1 0 0 
1 0 0 1 0 0 
1 0 0 1 0 0 
1 0 0 1 0 0 
1 0 0 1 0 0 
1 0 0 1 0 0 
1 0 0 1 0 0 
1 0 0 1 0 0 
1 0 0 1 0 0 
1 0 0 1 0 0 
1 0 0 1 0 0 
1 0 0 1 0 0 
1 0 0 1 0 0 
1 0 0 1 0 0 
1 0 0 1 0 0 
1 0 0 1 0 0 
1 0 0 1 0 0 
1 0 0 1 0 0 
1 0 0 1 0 0 
1 0 0 1 0 0 
1 0 0 1 0 0 
1 0 0 1 0 0 
1 0 0 1 0 0 
1 0 0 1 0 0 
1 0 0 1 0 0 
1 0 0 1 0 0 
1 0 0 1 0 0 
1 0 0 1 0 0 
1 0 0 1 0 0 
1 0 0 1 0 0 
1 0 0 1 0 0 
1 0 0 1 0 0 
1 0 0 1 0 0 
1 0 0 1 0 0 
1 0 0 1 0 0 
1 0 0 1 0 0 
1 0 0 1 0 0 
1 0 0 1 0 0 
1 0 0 1 0 0 
1 0 0 1 0 0 
1 0 0 1 0 0 
1 0 0 1 0 0 
1 0 0 1 0 0 
1 0 0 1 0 0 
1 0 0 1 0 0 
1 0 0 1 0 0 
1 0 0 1 0 0 
1 0 0 1 0 0 
1 0 0 1 0 0 
1 0 0 1 0 0 
1 0 0 1 0 0 
1 0 0 1 0 0 
1 0 0 1 0 0 
1 0 0 1 0 0 
1 0 0 1 0 0 
1 0 0 1 0 0 
1 0 0 1 0 0 
1 0 0 0.87451 0.87451 0.87451 
0.87451 0.87451 0.87451 0.87451 0.87451 0.87451 
0.87451 0.87451 0.87451 0.87451 0.87451 0.87451 
0.87451 0.87451 0.87451 0.87451 0.87451 0.87451 
0.87451 0.87451 0.87451 0.87451 0.87451 0.87451 
0.87451 0.87451 0.87451 0.87451 0.87451 0.87451 
0.87451 0.87451 0.87451 0.87451 0.87451 0.87451 
0.87451 0.87451 0.87451 0.87451 0.87451 0.87451 
0.87451 0.87451 0.87451 0.87451 0.87451 0.87451 
0.87451 0.87451 0.87451 0.87451 0.87451 0.87451 
0.87451 0.87451 0.87451 0.87451 0.87451 0.87451 
0.87451 0.87451 0.87451 0.87451 0.87451 0.87451 
0.87451 0.87451 0.87451 0.87451 0.87451 0.87451 
0.87451 0.87451 0.87451 0.87451 0.87451 0.87451 
0.87451 0.87451 0.87451 0.87451 0.87451 0.87451 
0.87451 0.87451 0.87451 0.87451 0.87451 0.87451 
0.87451 0.87451 0.87451 0.87451 0.87451 0.87451 
0.87451 0.87451 0.87451 0.87451 0.87451 0.87451 
0.87451 0.87451 0.87451 0.87451 0.87451 0.87451 
0.87451 0.87451 0.87451 0.87451 0.87451 0.87451 
0.87451 0.87451 0.87451 0.87451 0.87451 0.87451 
0.87451 0.87451 0.87451 0.87451 0.87451 0.87451 
0.87451 0.87451 0.87451 0.87451 0.87451 0.87451 
0.87451 0.87451 0.87451 0.87451 0.87451 0.87451 
0.87451 0.87451 0.87451 0.87451 0.87451 0.87451 
0.87451 0.87451 0.87451 0.87451 0.87451 0.87451 
0.87451 0.87451 0.87451 0.87451 0.87451 0.87451 
0.87451 0.87451 0.87451 0.87451 0.87451 0.87451 
0.87451 0.87451 0.87451 0.87451 0.87451 0.87451 
0.87451 0.87451 0.87451 0.87451 0.87451 0.87451 
0.87451 0.87451 0.87451 0.87451 0.87451 0.87451 
0.87451 0.87451 0.87451 0.87451 0.87451 0.87451 
0.87451 0.87451 0.87451 0.87451 0.87451 0.87451 
0.87451 0.87451 0.87451 0.87451 0.87451 0.87451 
0.87451 0.87451 0.87451 0.87451 0.87451 0.87451 
0.87451 0.87451 0.87451 0.87451 0.87451 0.87451 
0.87451 0.87451 0.87451 0.87451 0.87451 0.87451 
0.87451 0.87451 0.87451 0.87451 0.87451 0.87451 
0.87451 0.87451 0.87451 0.87451 0.87451 0.87451 
0.87451 0.87451 0.87451 0.87451 0.87451 0.87451 
0.87451 0.87451 0.87451 0.87451 0.87451 0.87451 
0.87451 0.87451 0.87451 0.87451 0.87451 0.87451 
0.87451 0.87451 0.87451 0.87451 0.87451 0.87451 
0.87451 0.87451 0.87451 0.87451 0.87451 0.87451 
0.87451 0.87451 0.87451 0.87451 0.87451 0.87451 
0.87451 0.87451 0.87451 0.87451 0.87451 0.87451 
0.87451 0.87451 0.87451 0.87451 0.87451 0.87451 
0.87451 0.87451 0.87451 0.87451 0.87451 0.87451 
0.87451 0.87451 0.87451 0.87451 0.87451 0.87451 
0.87451 0.87451 0.87451 0.87451 0.87451 0.87451 
0.87451 0.87451 0.87451 0.87451 0.87451 0.87451 
0.87451 0.87451 0.87451 0.87451 0.87451 0.87451 
0.87451 0.87451 0.87451 0.87451 0.87451 0.87451 
0.87451 0.87451 0.87451 0.87451 0.87451 0.87451 
0.87451 0.87451 0.87451 0.87451 0.87451 0.87451 
0.87451 0.87451 0.87451 0.87451 0.87451 0.87451 
0.87451 0.87451 0.87451 0.87451 0.87451 0.87451 
0.87451 0.87451 0.87451 0.87451 0.87451 0.87451 
0.87451 0.87451 0.87451 0.87451 0.87451 0.87451 
0.87451 0.87451 0.87451 0.87451 0.87451 0.87451 
0.87451 0.87451 0.87451 0.87451 0.87451 0.87451 
0.87451 0.87451 0.87451 0.87451 0.87451 0.87451 
0.87451 0.87451 0.87451 0.87451 0.87451 0.87451 
0.87451 0.87451 0.87451 0.87451 0.87451 0.87451 
0.87451 0.87451 0.87451 0.87451 0.87451 0.87451 
0.87451 0.87451 0.87451 0.87451 0.87451 0.87451 
0.87451 0.87451 0.87451 0.87451 0.87451 0.87451 
0.87451 0.87451 0.87451 0.87451 0.87451 0.87451 
0.87451 0.87451 0.87451 0.87451 0.87451 0.87451 
0.87451 0.87451 0.87451 0.87451 0.87451 0.87451 
0.87451 0.87451 0.87451 0.87451 0.87451 0.87451 
0.87451 0.87451 0.87451 0.87451 0.87451 0.87451 
0.87451 0.87451 0.87451 0.87451 0.87451 0.87451 
0.87451 0.87451 0.87451 0.87451 0.87451 0.87451 
0.87451 0.87451 0.87451 0.87451 0.87451 0.87451 
0.87451 0.87451 0.87451 0.87451 0.87451 0.87451 
0.87451 0.87451 0.87451 0.87451 0.87451 0.87451 
0.87451 0.87451 0.87451 0.87451 0.87451 0.87451 
0.87451 0.87451 0.87451 0.87451 0.87451 0.87451 
0.87451 0.87451 0.87451 0.87451 0.87451 0.87451 
0.87451 0.87451 0.87451 0.87451 0.87451 0.87451 
0.87451 0.87451 0.87451 0.87451 0.87451 0.87451 
0.87451 0.87451 0.87451 0.87451 0.87451 0.87451 
0.87451 0.87451 0.87451 0.87451 0.87451 0.87451 
0.87451 0.87451 0.87451 0.87451 0.87451 0.87451 
0.87451 0.87451 0.87451 0.87451 0.87451 0.87451 
0.87451 0.87451 0.87451 0.87451 0.87451 0.87451 
0.87451 0.87451 0.87451 0.87451 0.87451 0.87451 
0.87451 0.87451 0.87451 0.87451 0.87451 0.87451 
0.87451 0.87451 0.87451 0.87451 0.87451 0.87451 
0.87451 0.87451 0.87451 0.87451 0.87451 0.87451 
0.87451 0.87451 0.87451 0.87451 0.87451 0.87451 
0.87451 0.87451 0.87451 0.87451 0.87451 0.87451 
0.87451 0.87451 0.87451 0.87451 0.87451 0.87451 
0.87451 0.87451 0.87451 0.87451 0.87451 0.87451 
0.87451 0.87451 0.87451 0.87451 0.87451 0.87451 
0.87451 0.87451 0.87451 0.87451 0.87451 0.87451 
0.87451 0.87451 0.87451 0.87451 0.87451 0.87451 
0.87451 0.87451 0.87451 0.87451 0.87451 0.87451 
0.87451 0.87451 0.87451 0.87451 0.87451 0.87451 
0.87451 0.87451 0.87451 0.87451 0.87451 0.87451 
0.87451 0.87451 0.87451 0.87451 0.87451 0.87451 
0.87451 0.87451 0.87451 0.87451 0.87451 0.87451 
0.87451 0.87451 0.87451 0.87451 0.87451 0.87451 
0.87451 0.87451 0.87451 0.87451 0.87451 0.87451 
0.87451 0.87451 0.87451 0.87451 0.87451 0.87451 
0.87451 0.87451 0.87451 0.87451 0.87451 0.87451 
0.87451 0.87451 0.87451 0.87451 0.87451 0.87451 
0.87451 0.87451 0.87451 0.87451 0.87451 0.87451 
0.87451 0.87451 0.87451 0.87451 0.87451 0.87451 
0.87451 0.87451 0.87451 0.87451 0.87451 0.87451 
0.87451 0.87451 0.87451 0.87451 0.87451 0.87451 
0.87451 0.87451 0.87451 0.87451 0.87451 0.87451 
0.87451 0.87451 0.87451 0.87451 0.87451 0.87451 
0.87451 0.87451 0.87451 0.87451 0.87451 0.87451 
0.87451 0.87451 0.87451 0.87451 0.87451 0.87451 
0.87451 0.87451 0.87451 0.87451 0.87451 0.87451 
0.87451 0.87451 0.87451 0.87451 0.87451 0.87451 
0.87451 0.87451 0.87451 0.87451 0.87451 0.87451 
0.87451 0.87451 0.87451 0.87451 0.87451 0.87451 
0.87451 0.87451 0.87451 0.87451 0.87451 0.87451 
0.87451 0.87451 0.87451 0.87451 0.87451 0.87451 
0.87451 0.87451 0.87451 0.87451 0.87451 0.87451 
0.87451 0.87451 0.87451 0.87451 0.87451 0.87451 
0.87451 0.87451 0.87451 0.87451 0.87451 0.87451 
0.87451 0.87451 0.87451 0.87451 0.87451 0.87451 
0.87451 0.87451 0.87451 0.87451 0.87451 0.87451 
0.87451 0.87451 0.87451 0.87451 0.87451 0.87451 
0.87451 0.87451 0.87451 0.87451 0.87451 0.87451 
0.87451 0.87451 0.87451 0.87451 0.87451 0.87451 
0.87451 0.87451 0.87451 0.87451 0.87451 0.87451 
0.87451 0.87451 0.87451 0.87451 0.87451 0.87451 
0.87451 0.87451 0.87451 0.87451 0.87451 0.87451 
0.87451 0.87451 0.87451 0.87451 0.87451 0.87451 
0.87451 0.87451 0.87451 0.87451 0.87451 0.87451 
0.87451 0.87451 0.87451 0.87451 0.87451 0.87451 
0.87451 0.87451 0.87451 0.87451 0.87451 0.87451 
0.87451 0.87451 0.87451 0.87451 0.87451 0.87451 
0.87451 0.87451 0.87451 0.87451 0.87451 0.87451 
0.87451 0.87451 0.87451 0.87451 0.87451 0.87451 
0.87451 0.87451 0.87451 0.87451 0.87451 0.87451 
0.87451 0.87451 0.87451 0.87451 0.87451 0.87451 
0.87451 0.87451 0.87451 0.87451 0.87451 0.87451 
0.87451 0.87451 0.87451 0.87451 0.87451 0.87451 
0.87451 0.87451 0.87451 0.87451 0.87451 0.87451 
0.87451 0.87451 0.87451 0.87451 0.87451 0.87451 
0.87451 0.87451 0.87451 0.87451 0.87451 0.87451 
0.87451 0.87451 0.87451 0.87451 0.87451 0.87451 
0.87451 0.87451 0.87451 0.87451 0.87451 0.87451 
0.87451 0.87451 0.87451 0.87451 0.87451 0.87451 
0.87451 0.87451 0.87451 0.87451 0.87451 0.87451 
0.87451 0.87451 0.87451 0.87451 0.87451 0.87451 
0.87451 0.87451 0.87451 0.87451 0.87451 0.87451 
0.87451 0.87451 0.87451 0.87451 0.87451 0.87451 
0.87451 0.87451 0.87451 0.87451 0.87451 0.87451 
0.87451 0.87451 0.87451 0.87451 0.87451 0.87451 
0.87451 0.87451 0.87451 0.87451 0.87451 0.87451 
0.87451 0.87451 0.87451 0.87451 0.87451 0.87451 
0.87451 0.87451 0.87451 0.87451 0.87451 0.87451 
0.87451 0.87451 0.87451 0.87451 0.87451 0.87451 
0.87451 0.87451 0.87451 0.87451 0.87451 0.87451 
0.87451 0.87451 0.87451 0.87451 0.87451 0.87451 
0.87451 0.87451 0.87451 0.87451 0.87451 0.87451 
0.87451 0.87451 0.87451 0.87451 0.87451 0.87451 
0.87451 0.87451 0.87451 0.87451 0.87451 0.87451 
0.87451 0.87451 0.87451 0.87451 0.87451 0.87451 
0.87451 0.87451 0.87451 0.87451 0.87451 0.87451 
0.87451 0.87451 0.87451 0.87451 0.87451 0.87451 
0.87451 0.87451 0.87451 0.87451 0.87451 0.87451 
0.87451 0.87451 0.87451 0.87451 0.87451 0.87451 
0.87451 0.87451 0.87451 0.87451 0.87451 0.87451 
0.87451 0.87451 0.87451 0.87451 0.87451 0.87451 
0.87451 0.87451 0.87451 0.87451 0.87451 0.87451 
0.87451 0.87451 0.87451 0.87451 0.87451 0.87451 
0.87451 0.87451 0.87451 0.87451 0.87451 0.87451 
0.87451 0.87451 0.87451 0.87451 0.87451 0.87451 
0.87451 0.87451 0.87451 0.87451 0.87451 0.87451 
0.87451 0.87451 0.87451 0.87451 0.87451 0.87451 
0.87451 0.87451 0.87451 0.87451 0.87451 0.87451 
0.87451 0.87451 0.87451 0.87451 0.87451 0.87451 
0.87451 0.87451 0.87451 0.87451 0.87451 0.87451 
0.87451 0.87451 0.87451 0.87451 0.87451 0.87451 
0.87451 0.87451 0.87451 0.87451 0.87451 0.87451 
0.87451 0.87451 0.87451 0.87451 0.87451 0.87451 
0.87451 0.87451 0.87451 0.87451 0.87451 0.87451 
0.87451 0.87451 0.87451 0.87451 0.87451 0.87451 
0.87451 0.87451 0.87451 0.87451 0.87451 0.87451 
0.87451 0.87451 0.87451 0.87451 0.87451 0.87451 
0.87451 0.87451 0.87451 0.87451 0.87451 0.87451 
0.87451 0.87451 0.87451 0.87451 0.87451 0.87451 
0.87451 0.87451 0.87451 0.87451 0.87451 0.87451 
0.87451 0.87451 0.87451 0.87451 0.87451 0.87451 
0.87451 0.87451 0.87451 0.87451 0.87451 0.87451 
0.87451 0.87451 0.87451 0.87451 0.87451 0.87451 
0.87451 0.87451 0.87451 0.87451 0.87451 0.87451 
0.87451 0.87451 0.87451 0.87451 0.87451 0.87451 
0.87451 0.87451 0.87451 0.87451 0.87451 0.87451 
0.87451 0.87451 0.87451 0.87451 0.87451 0.87451 
0.87451 0.87451 0.87451 0.87451 0.87451 0.87451 
0.87451 0.87451 0.87451 0.87451 0.87451 0.87451 
0.87451 0.87451 0.87451 0.87451 0.87451 0.87451 
0.87451 0.87451 0.87451 0.87451 0.87451 0.87451 
0.87451 0.87451 0.87451 0.87451 0.87451 0.87451 
0.87451 0.87451 0.87451 0.87451 0.87451 0.87451 
0.87451 0.87451 0.87451 0.87451 0.87451 0.87451 
0.87451 0.87451 0.87451 0.87451 0.87451 0.87451 
0.87451 0.87451 0.87451 0.87451 0.87451 0.87451 
0.87451 0.87451 0.87451 0.87451 0.87451 0.87451 
0.87451 0.87451 0.87451 0.87451 0.87451 0.87451 
0.87451 0.87451 0.87451 0.87451 0.87451 0.87451 
0.87451 0.87451 0.87451 0.87451 0.87451 0.87451 
0.87451 0.87451 0.87451 0.87451 0.87451 0.87451 
0.87451 0.87451 0.87451 0.87451 0.87451 0.87451 
0.87451 0.87451 0.87451 0.87451 0.87451 0.87451 
0.87451 0.87451 0.87451 0.87451 0.87451 0.87451 
0.87451 0.87451 0.87451 0.87451 0.87451 0.87451 
0.87451 0.87451 0.87451 0.87451 0.87451 0.87451 
0.87451 0.87451 0.87451 0.87451 0.87451 0.87451 
0.87451 0.87451 0.87451 0.87451 0.87451 0.87451 
0.87451 0.87451 0.87451 0.87451 0.87451 0.87451 
0.87451 0.87451 0.87451 0.87451 0.87451 0.87451 
0.87451 0.87451 0.87451 0.87451 0.87451 0.87451 
0.87451 0.87451 0.87451 0.87451 0.87451 0.87451 
0.87451 0.87451 0.87451 0.87451 0.87451 0.87451 
0.87451 0.87451 0.87451 0.87451 0.87451 0.87451 
0.87451 0.87451 0.87451 0.87451 0.87451 0.87451 
0.87451 0.87451 0.87451 0.87451 0.87451 0.87451 
0.87451 0.87451 0.87451 0.87451 0.87451 0.87451 
0.87451 0.87451 0.87451 0.87451 0.87451 0.87451 
0.87451 0.87451 0.87451 0.87451 0.87451 0.87451 
0.87451 0.87451 0.87451 0.87451 0.87451 0.87451 
0.87451 0.87451 0.87451 0.87451 0.87451 0.87451 
0.87451 0.87451 0.87451 0.87451 0.87451 0.87451 
0.87451 0.87451 0.87451 0.87451 0.87451 0.87451 
0.87451 0.87451 0.87451 0.87451 0.87451 0.87451 
0.87451 0.87451 0.87451 0.87451 0.87451 0.87451 
0.87451 0.87451 0.87451 0.87451 0.87451 0.87451 
0.87451 0.87451 0.87451 0.87451 0.87451 0.87451 
0.87451 0.87451 0.87451 0.87451 0.87451 0.87451 
0.87451 0.87451 0.87451 0.87451 0.87451 0.87451 
0.87451 0.87451 0.87451 0.87451 0.87451 0.87451 
0.87451 0.87451 0.87451 0.87451 0.87451 0.87451 
0.87451 0.87451 0.87451 0.87451 0.87451 0.87451 
0.87451 0.87451 0.87451 0.87451 0.87451 0.87451 
0.87451 0.87451 0.87451 0.87451 0.87451 0.87451 
0.87451 0.87451 0.87451 0.87451 0.87451 0.87451 
0.87451 0.87451 0.87451 0.87451 0.87451 0.87451 
0.87451 0.87451 0.87451 0.87451 0.87451 0.87451 
0.87451 0.87451 0.87451 0.87451 0.87451 0.87451 
0.87451 0.87451 0.87451 0.87451 0.87451 0.87451 
0.87451 0.87451 0.87451 0.87451 0.87451 0.87451 
0.87451 0.87451 0.87451 0.87451 0.87451 0.87451 
0.87451 0.87451 0.87451 0.87451 0.87451 0.87451 
0.87451 0.87451 0.87451 0.87451 0.87451 0.87451 
0.87451 0.87451 0.87451 0.87451 0.87451 0.87451 
0.87451 0.87451 0.87451 0.87451 0.87451 0.87451 
0.87451 0.87451 0.87451 0.87451 0.87451 0.87451 
0.87451 0.87451 0.87451 0.87451 0.87451 0.87451 
0.87451 0.87451 0.87451 0.87451 0.87451 0.87451 
0.87451 0.87451 0.87451 0.87451 0.87451 0.87451 
0.87451 0.87451 0.87451 0.87451 0.87451 0.87451 
0.87451 0.87451 0.87451 0.87451 0.87451 0.87451 
0.87451 0.87451 0.87451 0.87451 0.87451 0.87451 
0.87451 0.87451 0.87451 0.87451 0.87451 0.87451 
0.87451 0.87451 0.87451 0.87451 0.87451 0.87451 
0.87451 0.87451 0.87451 0.87451 0.87451 0.87451 
0.87451 0.87451 0.87451 0.87451 0.87451 0.87451 
0.87451 0.87451 0.87451 0.87451 0.87451 0.87451 
0.87451 0.87451 0.87451 0.87451 0.87451 0.87451 
0.87451 0.87451 0.87451 0.87451 0.87451 0.87451 
0.87451 0.87451 0.87451 0.87451 0.87451 0.87451 
0.87451 0.87451 0.87451 0.87451 0.87451 0.87451 
0.87451 0.87451 0.87451 0.87451 0.87451 0.87451 
0.87451 0.87451 0.87451 0.87451 0.87451 0.87451 
0.87451 0.87451 0.87451 0.87451 0.87451 0.87451 
0.87451 0.87451 0.87451 0.87451 0.87451 0.87451 
0.87451 0.87451 0.87451 0.87451 0.87451 0.87451 
0.87451 0.87451 0.87451 0.87451 0.87451 0.87451 
0.87451 0.87451 0.87451 0.87451 0.87451 0.87451 
0.87451 0.87451 0.87451 0.87451 0.87451 0.87451 
0.87451 0.87451 0.87451 0.87451 0.87451 0.87451 
0.87451 0.87451 0.87451 0.87451 0.87451 0.87451 
0.87451 0.87451 0.87451 0.87451 0.87451 0.87451 
0.87451 0.87451 0.87451 0.87451 0.87451 0.87451 
0.87451 0.87451 0.87451 0.87451 0.87451 0.87451 
0.87451 0.87451 0.87451 0.87451 0.87451 0.87451 
0.87451 0.87451 0.87451 0.87451 0.87451 0.87451 
0.87451 0.87451 0.87451 0.87451 0.87451 0.87451 
0.87451 0.87451 0.87451 0.87451 0.87451 0.87451 
0.87451 0.87451 0.87451 0.87451 0.87451 0.87451 
0.87451 0.87451 0.87451 0.87451 0.87451 0.87451 
0.87451 0.87451 0.87451 0.87451 0.87451 0.87451 
0.87451 0.87451 0.87451 0.87451 0.87451 0.87451 
0.87451 0.87451 0.87451 0.87451 0.87451 0.87451 
0.87451 0.87451 0.87451 0.87451 0.87451 0.87451 
0.87451 0.87451 0.87451 0.87451 0.87451 0.87451 
0.87451 0.87451 0.87451 0.87451 0.87451 0.87451 
0.87451 0.87451 0.87451 0.87451 0.87451 0.87451 
0.87451 0.87451 0.87451 0.87451 0.87451 0.87451 
0.87451 0.87451 0.87451 0.87451 0.87451 0.87451 
0.87451 0.87451 0.87451 0.87451 0.87451 0.87451 
0.87451 0.87451 0.87451 0.87451 0.87451 0.87451 
0.87451 0.87451 0.87451 0.87451 0.87451 0.87451 
0.87451 0.87451 0.87451 0.87451 0.87451 0.87451 
0.87451 0.87451 0.87451 0.87451 0.87451 0.87451 
0.87451 0.87451 0.87451 0.87451 0.87451 0.87451 
0.87451 0.87451 0.87451 0.87451 0.87451 0.87451 
0.87451 0.87451 0.87451 0.87451 0.87451 0.87451 
0.87451 0.87451 0.87451 0.87451 0.87451 0.87451 
0.87451 0.87451 0.87451 0.87451 0.87451 0.87451 
0.87451 0.87451 0.87451 0.87451 0.87451 0.87451 
0.87451 0.87451 0.87451 0.87451 0.87451 0.87451 
0.87451 0.87451 0.87451 0.87451 0.87451 0.87451 
0.87451 0.87451 0.87451 0.87451 0.87451 0.87451 
0.87451 0.87451 0.87451 0.87451 0.87451 0.87451 
0.87451 0.87451 0.87451 0.87451 0.87451 0.87451 
0.87451 0.87451 0.87451 0.87451 0.87451 0.87451 
0.87451 0.87451 0.87451 0.87451 0.87451 0.87451 
0.87451 0.87451 0.87451 0.87451 0.87451 0.87451 
0.87451 0.87451 0.87451 0.87451 0.87451 0.87451 
0.87451 0.87451 0.87451 0.87451 0.87451 0.87451 
0.87451 0.87451 0.87451 0.87451 0.87451 0.87451 
0.87451 0.87451 0.87451 0.87451 0.87451 0.87451 
0.87451 0.87451 0.87451 0.87451 0.87451 0.87451 
0.87451 0.87451 0.87451 0.87451 0.87451 0.87451 
0.87451 0.87451 0.87451 0.87451 0.87451 0.87451 
0.87451 0.87451 0.87451 0.87451 0.87451 0.87451 
0.87451 0.87451 0.87451 0.87451 0.87451 0.87451 
0.87451 0.87451 0.87451 0.87451 0.87451 0.87451 
0.87451 0.87451 0.87451 0.87451 0.87451 0.87451 
0.87451 0.87451 0.87451 0.87451 0.87451 0.87451 

