# vtk DataFile Version 3.0
vtk output
ASCII
DATASET POLYDATA
POINTS 338 float
-7738.16 3818.06 1322.42 -7704.23 3728.53 1338.01 -7699.45 3685.05 1334.72 
-7680.78 3526.83 1323.94 -7645.15 3157.04 1291.29 -7615.45 2848.78 1264.08 
-7595.46 2641.25 1245.75 -7587.16 2474.38 1223.8 -7632.89 2394.17 1202.58 
-7652.02 2263.89 1229.24 -7657.21 2245.8 1230.14 -7559.9 1583.95 1361.66 
-7531.43 1390.31 1400.14 -7464.1 932.365 1491.14 -7451.3 583.121 1547.31 
-7445.03 538.989 1561.84 -7445.58 489.305 1566.04 -7446.96 432.888 1569.6 
-7486.05 179.881 1569.77 -7495.2 120.672 1569.81 -7544.48 -198.271 1570.02 
-7588.6 -405.118 1550.69 -7594.63 -432.325 1547.77 -7602.77 -467.927 1543.58 
-7641.24 -648.877 1526.86 -7648.7 -668.82 1523.65 -7658.88 -697.985 1520.66 
-7709.39 -819.345 1489.21 -7755.26 -929.54 1460.66 -7771.03 -967.432 1450.84 
-7788.51 -1020.71 1447.95 -7806.35 -1075.05 1445 -7815.15 -1101.89 1443.54 
-7851.93 -1202.29 1429.19 -7864.35 -1237.13 1425.01 -7895.53 -1324.6 1414.51 
-7903.13 -1345.94 1411.95 -7958.32 -1484.86 1382.07 -7969.55 -1513.76 1376.45 
-8001.62 -1496.01 1352.66 -8035.41 -1477.8 1328.07 -8149.98 -1416.04 1244.69 
-8181.84 -1398.87 1221.5 -8200.29 -1393.55 1212.51 -8295.69 -1376.4 1165.22 
-8463.11 -1369.3 1106.68 -8509.41 -1367.34 1090.5 -8542.2 -1365.95 1079.04 
-8597.13 -1355.04 1050.72 -8612.1 -1352.07 1043 -8617.09 -1352.39 1041.82 
-8726.25 -1359.51 1016.15 -8736.21 -1360.16 1013.8 -8762.55 -1369.62 1015.85 
-8829.14 -1393.55 1021.01 -8858.78 -1404.21 1023.31 -8906.13 -1425.77 1031.82 
-8952.15 -1459.58 1053.74 -8978.74 -1479.11 1066.41 -9040.87 -1524.75 1096.01 
-9049.79 -1532.95 1102.02 -9055.82 -1537.16 1104.66 -9134.82 -1567.99 1113.38 
-9264.75 -1610.35 1118.85 -9492.1 -1696.34 1141.04 -9502.31 -1698.24 1139.95 
-9510 -1701.9 1141.49 -9546.5 -1719.24 1148.82 -9549.95 -1721 1149.64 
-9549.95 -1721 1149.64 -9488.85 -1667.35 1111.2 -8890.29 -1120.74 712.34 
-8883.24 -559.417 730.736 -8877.73 -490.13 734.984 -8841.47 -353.826 728.388 
-8830.98 -210.542 713.256 -8796.06 -129.316 713.276 -8764.9 -34.7275 710.484 
-8631.96 307.765 706.332 -8595.19 403.898 705.008 -8499.95 1212.42 820.604 
-8474.5 1322.24 828.896 -8357.71 1925.11 869.944 -8344.7 1990.92 874.476 
-8247.88 2302.91 902.816 -8216.3 2438.94 913.1 -8203.85 2470.66 916.492 
-8203.76 2470.94 916.516 -8185.63 2568.39 931.304 -8080.34 2780.53 977.416 
-7844.66 3367.47 1143.48 -7747.73 3777.51 1306.33 -7738.16 3818.06 1322.42 
-8357.71 1925.11 869.944 -8474.5 1322.24 828.896 -7852.02 423.639 923.12 
-8499.95 1212.42 820.604 -8595.19 403.898 705.008 -8796.06 -129.316 713.276 
-8830.98 -210.542 713.256 -8004.14 -1219.52 1087.22 -8841.47 -353.826 728.388 
-8877.73 -490.13 734.984 -7445.58 489.305 1566.04 -7852.02 423.639 923.12 
-7446.96 432.888 1569.6 -7486.05 179.881 1569.77 -7464.1 932.365 1491.14 
-7531.43 1390.31 1400.14 -7852.02 423.639 923.12 -7559.9 1583.95 1361.66 
-7826.16 2395.44 987.9 -7657.21 2245.8 1230.14 -7652.02 2263.89 1229.24 
-8726.25 -1359.51 1016.15 -8890.29 -1120.74 712.34 -8736.21 -1360.16 1013.8 
-8762.55 -1369.62 1015.85 -9510 -1701.9 1141.49 -9502.31 -1698.24 1139.95 
-9488.85 -1667.35 1111.2 -9492.1 -1696.34 1141.04 -9264.75 -1610.35 1118.85 
-7755.26 -929.54 1460.66 -7709.39 -819.345 1489.21 -8004.14 -1219.52 1087.22 
-7641.24 -648.877 1526.86 -7852.02 423.639 923.12 -7602.77 -467.927 1543.58 
-7594.63 -432.325 1547.77 -7615.45 2848.78 1264.08 -7645.15 3157.04 1291.29 
-7844.66 3367.47 1143.48 -7680.78 3526.83 1323.94 -7747.73 3777.51 1306.33 
-7699.45 3685.05 1334.72 -7704.23 3728.53 1338.01 -8035.41 -1477.8 1328.07 
-8004.14 -1219.52 1087.22 -8149.98 -1416.04 1244.69 -8181.84 -1398.87 1221.5 
-7445.03 538.989 1561.84 -7451.3 583.121 1547.31 -7445.58 489.305 1566.04 
-7852.02 423.639 923.12 -7544.48 -198.271 1570.02 -7852.02 423.639 923.12 
-7588.6 -405.118 1550.69 -7594.63 -432.325 1547.77 -8883.24 -559.417 730.736 
-8890.29 -1120.74 712.34 -8004.14 -1219.52 1087.22 -8612.1 -1352.07 1043 
-8597.13 -1355.04 1050.72 -8829.14 -1393.55 1021.01 -8890.29 -1120.74 712.34 
-8858.78 -1404.21 1023.31 -8906.13 -1425.77 1031.82 -8796.06 -129.316 713.276 
-8004.14 -1219.52 1087.22 -8764.9 -34.7275 710.484 -7852.02 423.639 923.12 
-8631.96 307.765 706.332 -8595.19 403.898 705.008 -7464.1 932.365 1491.14 
-7852.02 423.639 923.12 -7451.3 583.121 1547.31 -8004.14 -1219.52 1087.22 
-8597.13 -1355.04 1050.72 -8509.41 -1367.34 1090.5 -8542.2 -1365.95 1079.04 
-8080.34 2780.53 977.416 -8185.63 2568.39 931.304 -7826.16 2395.44 987.9 
-8203.76 2470.94 916.516 -8203.85 2470.66 916.492 -8762.55 -1369.62 1015.85 
-8890.29 -1120.74 712.34 -8829.14 -1393.55 1021.01 -8357.71 1925.11 869.944 
-7852.02 423.639 923.12 -8344.7 1990.92 874.476 -8247.88 2302.91 902.816 
-7852.02 423.639 923.12 -7826.16 2395.44 987.9 -8247.88 2302.91 902.816 
-8216.3 2438.94 913.1 -8612.1 -1352.07 1043 -8890.29 -1120.74 712.34 
-8617.09 -1352.39 1041.82 -8726.25 -1359.51 1016.15 -7486.05 179.881 1569.77 
-7852.02 423.639 923.12 -7495.2 120.672 1569.81 -7544.48 -198.271 1570.02 
-7969.55 -1513.76 1376.45 -8004.14 -1219.52 1087.22 -8001.62 -1496.01 1352.66 
-8035.41 -1477.8 1328.07 -9134.82 -1567.99 1113.38 -9055.82 -1537.16 1104.66 
-9040.87 -1524.75 1096.01 -9049.79 -1532.95 1102.02 -9264.75 -1610.35 1118.85 
-9134.82 -1567.99 1113.38 -8978.74 -1479.11 1066.41 -9040.87 -1524.75 1096.01 
-7864.35 -1237.13 1425.01 -7851.93 -1202.29 1429.19 -8004.14 -1219.52 1087.22 
-7806.35 -1075.05 1445 -7788.51 -1020.71 1447.95 -9488.85 -1667.35 1111.2 
-9264.75 -1610.35 1118.85 -8952.15 -1459.58 1053.74 -8978.74 -1479.11 1066.41 
-8080.34 2780.53 977.416 -7826.16 2395.44 987.9 -7844.66 3367.47 1143.48 
-7615.45 2848.78 1264.08 -7652.02 2263.89 1229.24 -7632.89 2394.17 1202.58 
-7826.16 2395.44 987.9 -7587.16 2474.38 1223.8 -7595.46 2641.25 1245.75 
-8200.29 -1393.55 1212.51 -8004.14 -1219.52 1087.22 -8295.69 -1376.4 1165.22 
-8463.11 -1369.3 1106.68 -7641.24 -648.877 1526.86 -7709.39 -819.345 1489.21 
-7648.7 -668.82 1523.65 -7658.88 -697.985 1520.66 -7903.13 -1345.94 1411.95 
-8004.14 -1219.52 1087.22 -7958.32 -1484.86 1382.07 -7969.55 -1513.76 1376.45 
-8906.13 -1425.77 1031.82 -8890.29 -1120.74 712.34 -8952.15 -1459.58 1053.74 
-9488.85 -1667.35 1111.2 -8203.85 2470.66 916.492 -8216.3 2438.94 913.1 
-7826.16 2395.44 987.9 -7903.13 -1345.94 1411.95 -7895.53 -1324.6 1414.51 
-8004.14 -1219.52 1087.22 -7864.35 -1237.13 1425.01 -8004.14 -1219.52 1087.22 
-8200.29 -1393.55 1212.51 -8181.84 -1398.87 1221.5 -9510 -1701.9 1141.49 
-9488.85 -1667.35 1111.2 -9546.5 -1719.24 1148.82 -9549.95 -1721 1149.64 
-7815.15 -1101.89 1443.54 -7806.35 -1075.05 1445 -7851.93 -1202.29 1429.19 
-7615.45 2848.78 1264.08 -7826.16 2395.44 987.9 -7595.46 2641.25 1245.75 
-8463.11 -1369.3 1106.68 -8004.14 -1219.52 1087.22 -8509.41 -1367.34 1090.5 
-7738.16 3818.06 1322.42 -7747.73 3777.51 1306.33 -7704.23 3728.53 1338.01 
-8877.73 -490.13 734.984 -8883.24 -559.417 730.736 -8004.14 -1219.52 1087.22 
-7755.26 -929.54 1460.66 -8004.14 -1219.52 1087.22 -7771.03 -967.432 1450.84 
-7788.51 -1020.71 1447.95 -9863.57 -1942.43 1355.34 -9645.01 -1801.52 1209.52 
-9639.06 -1797.83 1205.72 -9639.06 -1797.83 1205.72 -9653.85 -1810.66 1219.62 
-9688.27 -1840.52 1251.95 -9715.49 -1871.66 1286.71 -9723.86 -1881.59 1297.83 
-9764.06 -1929.27 1351.24 -9768.35 -1934.36 1356.94 -9775.68 -1937.12 1359.42 
-9810.31 -1950.13 1371.15 -9845.69 -1963.43 1383.13 -9851.55 -1966.5 1386.18 
-9853.69 -1965.98 1385.29 -9853.98 -1964.97 1384.02 -9860.81 -1948.04 1362.52 
-9863.57 -1942.43 1355.34 -9863.57 -1942.43 1355.34 -9860.81 -1948.04 1362.52 
-9810.31 -1950.13 1371.15 -9845.69 -1963.43 1383.13 -9853.69 -1965.98 1385.29 
-9851.55 -1966.5 1386.18 -9853.98 -1964.97 1384.02 -9845.69 -1963.43 1383.13 
-9860.81 -1948.04 1362.52 -9863.57 -1942.43 1355.34 -9775.68 -1937.12 1359.42 
-9688.27 -1840.52 1251.95 -9715.49 -1871.66 1286.71 -9768.35 -1934.36 1356.94 
-9764.06 -1929.27 1351.24 -9775.68 -1937.12 1359.42 -9723.86 -1881.59 1297.83 
-9715.49 -1871.66 1286.71 -9775.68 -1937.12 1359.42 -9863.57 -1942.43 1355.34 
-9810.31 -1950.13 1371.15 -9688.27 -1840.52 1251.95 -9653.85 -1810.66 1219.62 
-9645.01 -1801.52 1209.52 -9639.06 -1797.83 1205.72 -9645.01 -1801.52 1209.52 
-9863.57 -1942.43 1355.34 -9688.27 -1840.52 1251.95 -9639.06 -1797.83 1205.72 
-9636.5 -1795.61 1203.33 -9634.27 -1793.67 1201.23 -9594.8 -1748.78 1165.51 
-9588.73 -1740.73 1158.8 -9549.95 -1721 1149.64 -9549.95 -1721 1149.64 
-9633.61 -1794.45 1202.25 -9639.06 -1797.83 1205.72 -9634.27 -1793.67 1201.23 
-9636.5 -1795.61 1203.33 -9633.61 -1794.45 1202.25 -9639.06 -1797.83 1205.72 
-9634.27 -1793.67 1201.23 -9633.61 -1794.45 1202.25 -9594.8 -1748.78 1165.51 
-9549.95 -1721 1149.64 -9588.73 -1740.73 1158.8 
LINES 114 342
2 0 1 
2 1 2 
2 2 3 
2 3 4 
2 4 5 
2 5 6 
2 6 7 
2 7 8 
2 8 9 
2 9 10 
2 10 11 
2 11 12 
2 12 13 
2 13 14 
2 14 15 
2 15 16 
2 16 17 
2 17 18 
2 18 19 
2 19 20 
2 20 21 
2 21 22 
2 22 23 
2 23 24 
2 24 25 
2 25 26 
2 26 27 
2 27 28 
2 28 29 
2 29 30 
2 30 31 
2 31 32 
2 32 33 
2 33 34 
2 34 35 
2 35 36 
2 36 37 
2 37 38 
2 38 39 
2 39 40 
2 40 41 
2 41 42 
2 42 43 
2 43 44 
2 44 45 
2 45 46 
2 46 47 
2 47 48 
2 48 49 
2 49 50 
2 50 51 
2 51 52 
2 52 53 
2 53 54 
2 54 55 
2 55 56 
2 56 57 
2 57 58 
2 58 59 
2 59 60 
2 60 61 
2 61 62 
2 62 63 
2 63 64 
2 64 65 
2 65 66 
2 66 67 
2 67 68 
2 69 70 
2 70 71 
2 71 72 
2 72 73 
2 73 74 
2 74 75 
2 75 76 
2 76 77 
2 77 78 
2 78 79 
2 79 80 
2 80 81 
2 81 82 
2 82 83 
2 83 84 
2 84 85 
2 85 86 
2 86 87 
2 87 88 
2 88 89 
2 89 90 
2 90 91 
2 91 92 
2 274 275 
2 275 276 
2 277 278 
2 278 279 
2 279 280 
2 280 281 
2 281 282 
2 282 283 
2 283 284 
2 284 285 
2 285 286 
2 286 287 
2 287 288 
2 288 289 
2 289 290 
2 290 291 
2 320 321 
2 321 322 
2 322 323 
2 323 324 
2 324 325 
2 326 327 
2 327 328 

POLYGONS 114 456
3 93 94 95 
3 94 95 96 
3 95 96 97 
3 98 99 100 
3 99 100 101 
3 100 101 102 
3 103 104 105 
3 104 105 106 
3 107 108 109 
3 108 109 110 
3 109 110 111 
3 110 111 112 
3 111 112 113 
3 114 115 116 
3 115 116 117 
3 118 119 120 
3 119 120 121 
3 120 121 122 
3 123 124 125 
3 124 125 126 
3 125 126 127 
3 126 127 128 
3 127 128 129 
3 130 131 132 
3 131 132 133 
3 132 133 134 
3 133 134 135 
3 134 135 136 
3 137 138 139 
3 138 139 140 
3 141 142 143 
3 142 143 144 
3 145 146 147 
3 146 147 148 
3 149 150 151 
3 150 151 152 
3 151 152 153 
3 154 155 156 
3 155 156 157 
3 158 159 160 
3 159 160 161 
3 160 161 162 
3 161 162 163 
3 164 165 166 
3 167 168 169 
3 168 169 170 
3 171 172 173 
3 172 173 174 
3 173 174 175 
3 176 177 178 
3 179 180 181 
3 180 181 182 
3 183 184 185 
3 184 185 186 
3 187 188 189 
3 188 189 190 
3 191 192 193 
3 192 193 194 
3 195 196 197 
3 196 197 198 
3 199 200 201 
3 200 201 202 
3 203 204 205 
3 204 205 206 
3 207 208 209 
3 208 209 210 
3 209 210 211 
3 212 213 214 
3 213 214 215 
3 216 217 218 
3 217 218 219 
3 220 221 222 
3 221 222 223 
3 222 223 224 
3 225 226 227 
3 226 227 228 
3 229 230 231 
3 230 231 232 
3 233 234 235 
3 234 235 236 
3 237 238 239 
3 238 239 240 
3 241 242 243 
3 244 245 246 
3 245 246 247 
3 248 249 250 
3 251 252 253 
3 252 253 254 
3 255 256 257 
3 258 259 260 
3 261 262 263 
3 264 265 266 
3 267 268 269 
3 270 271 272 
3 271 272 273 
3 292 293 294 
3 293 294 295 
3 296 297 298 
3 297 298 299 
3 298 299 300 
3 301 302 303 
3 302 303 304 
3 305 306 307 
3 306 307 308 
3 307 308 309 
3 310 311 312 
3 313 314 315 
3 314 315 316 
3 317 318 319 
3 329 330 331 
3 330 331 332 
3 333 334 335 
3 334 335 336 
3 335 336 337 

POINT_DATA 338
COLOR_SCALARS VRMLColor 3
1 1 1 1 1 1 1 1 1 
1 1 1 1 1 1 
1 1 1 1 1 1 
1 1 1 1 1 1 
1 1 1 1 1 1 
1 1 1 1 1 1 
1 1 1 1 1 1 
1 1 1 1 1 1 
1 1 1 1 1 1 
1 1 1 1 1 1 
1 1 1 1 1 1 
1 1 1 1 1 1 
1 1 1 1 1 1 
1 1 1 1 1 1 
1 1 1 1 1 1 
1 1 1 1 1 1 
1 1 1 1 1 1 
1 1 1 1 1 1 
1 1 1 1 1 1 
1 1 1 1 1 1 
1 1 1 1 1 1 
1 1 1 1 1 1 
1 1 1 1 1 1 
1 1 1 1 1 1 
1 1 1 1 1 1 
1 1 1 1 1 1 
1 1 1 1 1 1 
1 1 1 1 1 1 
1 1 1 1 1 1 
1 1 1 1 1 1 
1 1 1 1 1 1 
1 1 1 1 1 1 
1 1 1 1 1 1 
1 1 1 1 1 1 
1 1 1 1 1 1 
1 1 1 1 1 1 
1 1 1 1 1 1 
1 1 1 1 1 1 
1 1 1 1 1 1 
1 1 1 1 1 1 
1 1 1 1 1 1 
1 1 1 1 1 1 
1 1 1 1 1 1 
1 1 1 1 1 1 
1 1 1 1 1 1 
1 1 1 1 1 1 
0.309804 0.619608 0.411765 0.309804 0.619608 0.411765 
0.309804 0.619608 0.411765 0.309804 0.619608 0.411765 
0.309804 0.619608 0.411765 0.309804 0.619608 0.411765 
0.309804 0.619608 0.411765 0.309804 0.619608 0.411765 
0.309804 0.619608 0.411765 0.309804 0.619608 0.411765 
0.309804 0.619608 0.411765 0.309804 0.619608 0.411765 
0.309804 0.619608 0.411765 0.309804 0.619608 0.411765 
0.309804 0.619608 0.411765 0.309804 0.619608 0.411765 
0.309804 0.619608 0.411765 0.309804 0.619608 0.411765 
0.309804 0.619608 0.411765 0.309804 0.619608 0.411765 
0.309804 0.619608 0.411765 0.309804 0.619608 0.411765 
0.309804 0.619608 0.411765 0.309804 0.619608 0.411765 
0.309804 0.619608 0.411765 0.309804 0.619608 0.411765 
0.309804 0.619608 0.411765 0.309804 0.619608 0.411765 
0.309804 0.619608 0.411765 0.309804 0.619608 0.411765 
0.309804 0.619608 0.411765 0.309804 0.619608 0.411765 
0.309804 0.619608 0.411765 0.309804 0.619608 0.411765 
0.309804 0.619608 0.411765 0.309804 0.619608 0.411765 
0.309804 0.619608 0.411765 0.309804 0.619608 0.411765 
0.309804 0.619608 0.411765 0.309804 0.619608 0.411765 
0.309804 0.619608 0.411765 0.309804 0.619608 0.411765 
0.309804 0.619608 0.411765 0.309804 0.619608 0.411765 
0.309804 0.619608 0.411765 0.309804 0.619608 0.411765 
0.309804 0.619608 0.411765 0.309804 0.619608 0.411765 
0.309804 0.619608 0.411765 0.309804 0.619608 0.411765 
0.309804 0.619608 0.411765 0.309804 0.619608 0.411765 
0.309804 0.619608 0.411765 0.309804 0.619608 0.411765 
0.309804 0.619608 0.411765 0.309804 0.619608 0.411765 
0.309804 0.619608 0.411765 0.309804 0.619608 0.411765 
0.309804 0.619608 0.411765 0.309804 0.619608 0.411765 
0.309804 0.619608 0.411765 0.309804 0.619608 0.411765 
0.309804 0.619608 0.411765 0.309804 0.619608 0.411765 
0.309804 0.619608 0.411765 0.309804 0.619608 0.411765 
0.309804 0.619608 0.411765 0.309804 0.619608 0.411765 
0.309804 0.619608 0.411765 0.309804 0.619608 0.411765 
0.309804 0.619608 0.411765 0.309804 0.619608 0.411765 
0.309804 0.619608 0.411765 0.309804 0.619608 0.411765 
0.309804 0.619608 0.411765 0.309804 0.619608 0.411765 
0.309804 0.619608 0.411765 0.309804 0.619608 0.411765 
0.309804 0.619608 0.411765 0.309804 0.619608 0.411765 
0.309804 0.619608 0.411765 0.309804 0.619608 0.411765 
0.309804 0.619608 0.411765 0.309804 0.619608 0.411765 
0.309804 0.619608 0.411765 0.309804 0.619608 0.411765 
0.309804 0.619608 0.411765 0.309804 0.619608 0.411765 
0.309804 0.619608 0.411765 0.309804 0.619608 0.411765 
0.309804 0.619608 0.411765 0.309804 0.619608 0.411765 
0.309804 0.619608 0.411765 0.309804 0.619608 0.411765 
0.309804 0.619608 0.411765 0.309804 0.619608 0.411765 
0.309804 0.619608 0.411765 0.309804 0.619608 0.411765 
0.309804 0.619608 0.411765 0.309804 0.619608 0.411765 
0.309804 0.619608 0.411765 0.309804 0.619608 0.411765 
0.309804 0.619608 0.411765 0.309804 0.619608 0.411765 
0.309804 0.619608 0.411765 0.309804 0.619608 0.411765 
0.309804 0.619608 0.411765 0.309804 0.619608 0.411765 
0.309804 0.619608 0.411765 0.309804 0.619608 0.411765 
0.309804 0.619608 0.411765 0.309804 0.619608 0.411765 
0.309804 0.619608 0.411765 0.309804 0.619608 0.411765 
0.309804 0.619608 0.411765 0.309804 0.619608 0.411765 
0.309804 0.619608 0.411765 0.309804 0.619608 0.411765 
0.309804 0.619608 0.411765 0.309804 0.619608 0.411765 
0.309804 0.619608 0.411765 0.309804 0.619608 0.411765 
0.309804 0.619608 0.411765 0.309804 0.619608 0.411765 
0.309804 0.619608 0.411765 0.309804 0.619608 0.411765 
0.309804 0.619608 0.411765 0.309804 0.619608 0.411765 
0.309804 0.619608 0.411765 0.309804 0.619608 0.411765 
0.309804 0.619608 0.411765 0.309804 0.619608 0.411765 
0.309804 0.619608 0.411765 0.309804 0.619608 0.411765 
0.309804 0.619608 0.411765 0.309804 0.619608 0.411765 
0.309804 0.619608 0.411765 0.309804 0.619608 0.411765 
0.309804 0.619608 0.411765 0.309804 0.619608 0.411765 
0.309804 0.619608 0.411765 0.309804 0.619608 0.411765 
0.309804 0.619608 0.411765 0.309804 0.619608 0.411765 
0.309804 0.619608 0.411765 0.309804 0.619608 0.411765 
0.309804 0.619608 0.411765 0.309804 0.619608 0.411765 
0.309804 0.619608 0.411765 0.309804 0.619608 0.411765 
0.309804 0.619608 0.411765 0.309804 0.619608 0.411765 
0.309804 0.619608 0.411765 0.309804 0.619608 0.411765 
0.309804 0.619608 0.411765 0.309804 0.619608 0.411765 
0.309804 0.619608 0.411765 0.309804 0.619608 0.411765 
0.309804 0.619608 0.411765 0.309804 0.619608 0.411765 
0.309804 0.619608 0.411765 0.309804 0.619608 0.411765 
0.309804 0.619608 0.411765 0.309804 0.619608 0.411765 
0.309804 0.619608 0.411765 0.309804 0.619608 0.411765 
0.309804 0.619608 0.411765 0.309804 0.619608 0.411765 
0.309804 0.619608 0.411765 0.309804 0.619608 0.411765 
0.309804 0.619608 0.411765 0.309804 0.619608 0.411765 
0.309804 0.619608 0.411765 0.309804 0.619608 0.411765 
0.309804 0.619608 0.411765 0.309804 0.619608 0.411765 
0.309804 0.619608 0.411765 0.309804 0.619608 0.411765 
0.309804 0.619608 0.411765 0.309804 0.619608 0.411765 
0.309804 0.619608 0.411765 1 1 1 
1 1 1 1 1 1 
1 1 1 1 1 1 
1 1 1 1 1 1 
1 1 1 1 1 1 
1 1 1 1 1 1 
1 1 1 1 1 1 
1 1 1 1 1 1 
1 1 1 1 1 1 
1 1 1 0.309804 0.619608 0.411765 
0.309804 0.619608 0.411765 0.309804 0.619608 0.411765 
0.309804 0.619608 0.411765 0.309804 0.619608 0.411765 
0.309804 0.619608 0.411765 0.309804 0.619608 0.411765 
0.309804 0.619608 0.411765 0.309804 0.619608 0.411765 
0.309804 0.619608 0.411765 0.309804 0.619608 0.411765 
0.309804 0.619608 0.411765 0.309804 0.619608 0.411765 
0.309804 0.619608 0.411765 0.309804 0.619608 0.411765 
0.309804 0.619608 0.411765 0.309804 0.619608 0.411765 
0.309804 0.619608 0.411765 0.309804 0.619608 0.411765 
0.309804 0.619608 0.411765 0.309804 0.619608 0.411765 
0.309804 0.619608 0.411765 0.309804 0.619608 0.411765 
0.309804 0.619608 0.411765 0.309804 0.619608 0.411765 
0.309804 0.619608 0.411765 0.309804 0.619608 0.411765 
0.309804 0.619608 0.411765 1 1 1 
1 1 1 1 1 1 
1 1 1 1 1 1 
1 1 1 1 1 1 
1 1 1 1 1 1 
0.309804 0.619608 0.411765 0.309804 0.619608 0.411765 
0.309804 0.619608 0.411765 0.309804 0.619608 0.411765 
0.309804 0.619608 0.411765 0.309804 0.619608 0.411765 
0.309804 0.619608 0.411765 0.309804 0.619608 0.411765 
0.309804 0.619608 0.411765 
