# vtk DataFile Version 3.0
vtk output
ASCII
DATASET POLYDATA
POINTS 106 float
-9995 7495 -1200 4995 7495 -1200 -9995 -2495 -1200 
4995 -2495 -1200 -9995 7495 -1200 -9995 -2495 -1200 
-10136.4 -2636.42 -1200 5136.42 -2636.42 -1200 5136.42 7636.42 -1200 
5136.42 -2636.42 -1200 4995 -2495 -1200 -9995 -2495 -1200 
4995 7495 -1200 -9995 7495 -1200 -10136.4 7636.42 -1200 
-10136.4 -2636.42 -1200 4995 -2495 -1200 4995 7495 -1200 
5136.42 7636.42 -1200 -10136.4 7636.42 -1200 4995 7495 -1200 
-9995 7495 -1200 -10136.4 7636.42 -1200 -10136.4 -2636.42 -1200 
-10136.4 7636.42 -1200 5136.42 7636.42 -1200 4995 7495 -1200 
4995 -2495 -1200 -9995 -2495 -1200 5136.42 -2636.42 -1200 
-10136.4 -2636.42 -1200 5136.42 7636.42 -1200 5136.42 -2636.42 -1200 
4995 -2495 -1200 4995 7495 -1200 -9995 -2495 -1200 
-9995 7495 -1200 -10136.4 -2636.42 -1200 4995 7495 -1200 
-9995 7495 -1200 -10136.4 7636.42 -1200 -10136.4 -2636.42 -1200 
4995 -2495 -1200 4995 7495 -1200 5136.42 7636.42 -1200 
-10136.4 7636.42 -1200 5136.42 7636.42 -1200 5136.42 -2636.42 -1200 
4995 -2495 -1200 -9995 -2495 -1200 5136.42 -2636.42 -1200 
-10136.4 -2636.42 -1200 -9995 -2495 -1200 -9995 7495 -1200 
4995 7495 -1200 -9995 -2495 -1200 -9995 7495 -1200 
-10136.4 -2636.42 -1200 -10136.4 7636.42 -1200 5136.42 7636.42 -1200 
5136.42 -2636.42 -1200 4995 -2495 -1200 -9995 -2495 -1200 
4995 7495 -1200 5136.42 -2636.42 -1200 -10136.4 -2636.42 -1200 
-9995 -2495 -1200 4995 -2495 -1200 4995 7495 -1200 
5136.42 7636.42 -1200 -10136.4 7636.42 -1200 4995 7495 -1200 
-9995 7495 -1200 -10136.4 7636.42 -1200 4995 7495 -1200 
-9995 7495 -1200 -10136.4 7636.42 -1200 -10136.4 -2636.42 -1200 
4995 -2495 -1200 4995 7495 -1200 5136.42 7636.42 -1200 
-10136.4 7636.42 -1200 5136.42 7636.42 -1200 5136.42 -2636.42 -1200 
4995 -2495 -1200 -9995 -2495 -1200 5136.42 -2636.42 -1200 
-10136.4 -2636.42 -1200 -9995 -2495 -1200 -9995 7495 -1200 
5136.42 7636.42 -1200 5136.42 -2636.42 -1200 4995 -2495 -1200 
-9995 -2495 -1200 4995 7495 -1200 -9995 7495 -1200 
-10136.4 7636.42 -1200 -10136.4 -2636.42 -1200 4995 -2495 -1200 
4995 7495 -1200 5136.42 7636.42 -1200 -10136.4 7636.42 -1200 
5136.42 -2636.42 -1200 -10136.4 -2636.42 -1200 -9995 -2495 -1200 
-9995 7495 -1200 
POLYGONS 56 224
3 0 1 2 
3 1 2 3 
3 4 5 6 
3 5 6 7 
3 8 9 10 
3 9 10 11 
3 12 13 14 
3 13 14 15 
3 16 17 18 
3 17 18 19 
3 20 21 22 
3 21 22 23 
3 24 25 26 
3 25 26 27 
3 26 27 28 
3 27 28 29 
3 28 29 30 
3 31 32 33 
3 34 35 36 
3 35 36 37 
3 38 39 40 
3 39 40 41 
3 42 43 44 
3 43 44 45 
3 46 47 48 
3 47 48 49 
3 50 51 52 
3 51 52 53 
3 54 55 56 
3 55 56 57 
3 56 57 58 
3 59 60 61 
3 60 61 62 
3 61 62 63 
3 64 65 66 
3 67 68 69 
3 68 69 70 
3 71 72 73 
3 74 75 76 
3 75 76 77 
3 78 79 80 
3 79 80 81 
3 82 83 84 
3 83 84 85 
3 86 87 88 
3 87 88 89 
3 90 91 92 
3 91 92 93 
3 92 93 94 
3 93 94 95 
3 94 95 96 
3 95 96 97 
3 98 99 100 
3 99 100 101 
3 102 103 104 
3 103 104 105 

POINT_DATA 106
COLOR_SCALARS VRMLColor 3
0 0 0.501961 0 0 0.501961 0 0 0.501961 
0 0 0.501961 0 0 0.501961 
0 0 0.501961 0 0 0.501961 
0 0 0.501961 0 0 0.501961 
0 0 0.501961 0 0 0.501961 
0 0 0.501961 0 0 0.501961 
0 0 0.501961 0 0 0.501961 
0 0 0.501961 0 0 0.501961 
0 0 0.501961 0 0 0.501961 
0 0 0.501961 0 0 0.501961 
0 0 0.501961 0 0 0.501961 
0 0 0.501961 0 0 0.501961 
0 0 0.501961 0 0 0.501961 
0 0 0.501961 0 0 0.501961 
0 0 0.501961 0 0 0.501961 
0 0 0.501961 0 0 0.501961 
0 0 0.501961 0 0 0.501961 
0 0 0.501961 0 0 0.501961 
0 0 0.501961 0 0 0.501961 
0 0 0.501961 0 0 0.501961 
0 0 0.501961 0 0 0.501961 
0 0 0.501961 0 0 0.501961 
0 0 0.501961 0 0 0.501961 
0 0 0.501961 0 0 0.501961 
0 0 0.501961 0 0 0.501961 
0 0 0.501961 0 0 0.501961 
0 0 0.501961 0 0 0.501961 
0 0 0.501961 0 0 0.501961 
0 0 0.501961 0 0 0.501961 
0 0 0.501961 0 0 0.501961 
0 0 0.501961 0 0 0.501961 
0 0 0.501961 0 0 0.501961 
0 0 0.501961 0 0 0.501961 
0 0 0.501961 0 0 0.501961 
0 0 0.501961 0 0 0.501961 
0 0 0.501961 0 0 0.501961 
0 0 0.501961 0 0 0.501961 
0 0 0.501961 0 0 0.501961 
0 0 0.501961 0 0 0.501961 
0 0 0.501961 0 0 0.501961 
0 0 0.501961 0 0 0.501961 
0 0 0.501961 0 0 0.501961 
0 0 0.501961 0 0 0.501961 
0 0 0.501961 0 0 0.501961 
0 0 0.501961 0 0 0.501961 
0 0 0.501961 0 0 0.501961 
0 0 0.501961 0 0 0.501961 
0 0 0.501961 0 0 0.501961 
0 0 0.501961 0 0 0.501961 
0 0 0.501961 0 0 0.501961 
0 0 0.501961 0 0 0.501961 
0 0 0.501961 0 0 0.501961 
0 0 0.501961 
