# vtk DataFile Version 3.0
vtk output
ASCII
DATASET POLYDATA
POINTS 511 float
4930.44 -1059.24 1142.51 4930.7 -1371.2 1093.7 4915.77 -2156.77 958.616 
4915.77 -2156.77 958.616 4982.6 -2488.18 958.924 5000 -2500 959.808 
5000 -2500 959.808 4762.37 -2500 615.824 4653.87 -2500 490.444 
4509.2 -2500 400.428 4276.12 -2500 320.058 4043.88 -2500 263.8 
3645.3 -2500 231.19 2310.17 -2500 250.274 1783.89 -2500 272.879 
1176.36 -2500 329.393 989.159 -2500 332.219 876.131 -2500 295.485 
247.413 -2500 -57.7272 42.5503 -2500 -139.672 -788.149 -2466.44 -297.024 
-788.149 -2466.44 -297.024 -796.382 -2443.17 -289.094 -848.89 -2272.21 -229.183 
-902.8 -2115.33 -151.264 -887.877 -1714.78 67.5752 -889.684 -1604.24 127.191 
-901.356 -1150.17 398.588 -908.871 -1040.49 464.368 -920.149 -345.895 704.432 
-919.19 -326.314 704.996 -869.312 -220.988 692.808 -883.658 -67.1276 704.668 
-896.83 38.5157 726.188 -870.777 209.347 748.212 -866.996 307.226 813.244 
-939.898 618.714 974.62 -946.16 707.261 1028.26 -956.909 904.514 1128.28 
-956.909 904.514 1128.28 -679.601 924.673 1187.46 -650.02 927.242 1193.58 
-628.088 929.146 1198.11 -553.022 941.562 1216.68 -491.39 951.755 1231.93 
-356.761 965.714 1268.54 -257.271 970.661 1297.73 -111.69 1010.91 1327.32 
-85.2662 1018.21 1332.69 1.1785 981.183 1374.48 19.3527 966.317 1378.93 
132.271 906.585 1402.18 185.151 848.686 1417.09 250.444 777.197 1435.5 
287.462 736.666 1445.93 306.701 697.692 1441.08 404.059 560.397 1410.29 
451.333 489.314 1395.8 497.866 406.679 1374.62 501.998 402.205 1372.68 
556.023 343.714 1347.25 612.923 272.226 1320.68 692.371 172.407 1283.6 
766.059 18.0828 1213.81 789.831 -27.3358 1193.8 825.481 -0.290539 1163.38 
839.989 -10.1187 1151.1 875.231 -33.9926 1121.24 989.028 -111.081 1024.86 
1065.75 -154.757 964.308 1108.2 -191.123 931.068 1140.9 -200.293 916.144 
1152.74 -203.617 910.736 1204.75 -184.019 889.856 1216.58 -263.206 878.096 
1229.7 -351.001 865.06 1260.48 -371.45 850.02 1319.32 -385.939 838.584 
1374.84 -399.611 827.796 1478.15 -425.049 807.72 1497.16 -425.539 806.976 
1582.29 -427.328 803.932 1735.46 -428.38 799.98 1754.56 -428.512 799.484 
1845.71 -429.138 797.132 1990.29 -391.805 793.172 2020.45 -383.126 792.92 
2065.92 -375.233 789.196 2232.89 -322.887 790.564 2302.61 -301.03 791.132 
2307.69 -231.685 797.028 2308.95 -214.45 798.496 2345.74 -245.877 795.084 
2366.56 -263.666 793.152 2371.15 -255.354 793.784 2410.3 -184.374 799.176 
2440.15 -131.457 802.788 2497.93 -189.659 796.48 2571.87 -264.131 788.404 
2580.69 -281.84 786.708 2640.1 -401.217 775.292 2547.56 -395.142 778.184 
2633.72 -538.407 764.096 2658.21 -579.045 760.132 2703.65 -651.484 754.408 
2800.5 -802.838 743.844 2866.35 -905.754 736.664 2944.76 -1028.28 728.112 
2985.18 -1103.73 717.024 2990.42 -1113.51 715.584 2992.8 -1127.56 713.78 
2993.99 -1108.15 716.048 2999.31 -1021.35 726.204 3006.21 -930.652 729.896 
3052.29 -942.003 727.528 3119.36 -954.492 725.148 3197.88 -864.755 749.988 
3220.97 -838.363 757.292 3289.15 -760.45 778.856 3296.65 -747.809 781.644 
3334.68 -697.515 792.332 3408.61 -524.545 831.908 3432.53 -468.569 844.716 
3453.69 -419.045 856.044 3541.22 -214.25 902.9 3557.44 -213.408 909.004 
3592.52 -200.515 929.308 3648.36 -154.47 978.012 3669.81 -138.199 995.812 
3688.45 -3.83934 1020.21 3715.82 193.541 1056.04 3718.68 214.138 1059.78 
3741.48 302.944 1084.02 3821.22 507.457 1137.95 3862.36 702.231 1191.73 
3933.21 576.906 1219.28 3968.01 515.365 1232.81 4126.18 287.981 1332.21 
4133.94 276.589 1336.92 4268.49 487.482 1426.16 4302.42 501.976 1428.65 
4459.09 509.029 1409.14 4627.98 516.631 1388.11 4628.36 516.648 1388.07 
4628.74 516.016 1388.18 4643.69 491.253 1392.7 4651.45 478.404 1395.04 
4687.04 358.349 1388.02 4725.28 303.705 1366.56 4813.59 177.525 1317.01 
4895.29 60.7888 1271.16 4901.82 46.654 1266.23 4907.62 -69.3377 1258.23 
4914.96 -218.398 1247.74 4915.68 -423.172 1216.7 4916.49 -457.815 1212.66 
4927.01 -911.427 1159.75 4930.44 -1059.24 1142.51 5000 -2500 959.808 
4982.6 -2488.18 958.924 4762.37 -2500 615.824 4915.77 -2156.77 958.616 
4930.7 -1371.2 1093.7 -199.847 -1250 311.688 -309.772 -362.768 601.836 
-780.175 -1250 333.288 -621.437 -215.226 608.74 -908.871 -1040.49 464.368 
-920.149 -345.895 704.432 497.866 406.679 1374.62 451.333 489.314 1395.8 
377.634 -511.671 811.808 404.059 560.397 1410.29 306.701 697.692 1441.08 
3408.61 -524.545 831.908 3334.68 -697.515 792.332 4272.5 -945.935 683.872 
3289.15 -760.45 778.856 3566.94 -1951 467.568 3220.97 -838.363 757.292 
3197.88 -864.755 749.988 2302.61 -301.03 791.132 2232.89 -322.887 790.564 
2440.41 -447.132 670.452 2065.92 -375.233 789.196 1914.46 -625 657.796 
2020.45 -383.126 792.92 1990.29 -391.805 793.172 3068.35 -1875 373.392 
2995.69 -1250 645.224 2491.41 -1250 515.596 2440.41 -447.132 670.452 
1914.46 -625 657.796 -869.312 -220.988 692.808 -621.437 -215.226 608.74 
-883.658 -67.1276 704.668 -896.83 38.5157 726.188 4509.2 -2500 400.428 
4653.87 -2500 490.444 3566.94 -1951 467.568 4272.5 -945.935 683.872 
1990.29 -391.805 793.172 1845.71 -429.138 797.132 1914.46 -625 657.796 
1754.56 -428.512 799.484 1735.46 -428.38 799.98 3718.68 214.138 1059.78 
3715.82 193.541 1056.04 4272.5 -945.935 683.872 3688.45 -3.83934 1020.21 
3669.81 -138.199 995.812 3068.35 -1875 373.392 2491.41 -1250 515.596 
2067.01 -1875 387.705 1823.84 -1250 525.136 1166.31 -1875 444.232 
1210.05 -1250 555.48 333.123 -1250 567.252 783.655 -625 849.688 
377.634 -511.671 811.808 692.371 172.407 1283.6 612.923 272.226 1320.68 
1152.74 -203.617 910.736 1140.9 -200.293 916.144 1146.2 -625 673.908 
1108.2 -191.123 931.068 1065.75 -154.757 964.308 132.271 906.585 1402.18 
19.3527 966.317 1378.93 57.1442 -27.9238 797.668 1.1785 981.183 1374.48 
-85.2662 1018.21 1332.69 42.5503 -2500 -139.672 247.413 -2500 -57.7272 
-179.02 -1875 73.2468 901.346 -1875 441.664 333.123 -1250 567.252 
1166.31 -1875 444.232 4459.09 509.029 1409.14 4302.42 501.976 1428.65 
4272.5 -945.935 683.872 4268.49 487.482 1426.16 4133.94 276.589 1336.92 
3408.61 -524.545 831.908 4272.5 -945.935 683.872 3432.53 -468.569 844.716 
3453.69 -419.045 856.044 4927.01 -911.427 1159.75 4916.49 -457.815 1212.66 
4762.37 -2500 615.824 4915.68 -423.172 1216.7 4907.62 -69.3377 1258.23 
4914.96 -218.398 1247.74 1210.05 -1250 555.48 1823.84 -1250 525.136 
1146.2 -625 673.908 1914.46 -625 657.796 1478.15 -425.049 807.72 
1497.16 -425.539 806.976 -919.19 -326.314 704.996 -920.149 -345.895 704.432 
-869.312 -220.988 692.808 -621.437 -215.226 608.74 2992.8 -1127.56 713.78 
2990.42 -1113.51 715.584 2995.69 -1250 645.224 2985.18 -1103.73 717.024 
2944.76 -1028.28 728.112 1216.58 -263.206 878.096 1204.75 -184.019 889.856 
1146.2 -625 673.908 1152.74 -203.617 910.736 2571.87 -264.131 788.404 
2497.93 -189.659 796.48 2440.41 -447.132 670.452 2440.15 -131.457 802.788 
2410.3 -184.374 799.176 3197.88 -864.755 749.988 3119.36 -954.492 725.148 
3566.94 -1951 467.568 3052.29 -942.003 727.528 2995.69 -1250 645.224 
3006.21 -930.652 729.896 2999.31 -1021.35 726.204 -902.8 -2115.33 -151.264 
-848.89 -2272.21 -229.183 -179.02 -1875 73.2468 -796.382 -2443.17 -289.094 
-788.149 -2466.44 -297.024 3334.68 -697.515 792.332 3296.65 -747.809 781.644 
3289.15 -760.45 778.856 -491.39 951.755 1231.93 -553.022 941.562 1216.68 
-621.437 -215.226 608.74 -628.088 929.146 1198.11 -650.02 927.242 1193.58 
4628.74 516.016 1388.18 4628.36 516.648 1388.07 4687.04 358.349 1388.02 
4762.37 -2500 615.824 4725.28 303.705 1366.56 4813.59 177.525 1317.01 
333.123 -1250 567.252 -199.847 -1250 311.688 -179.02 -1875 73.2468 
-780.175 -1250 333.288 -887.877 -1714.78 67.5752 -889.684 -1604.24 127.191 
612.923 272.226 1320.68 556.023 343.714 1347.25 377.634 -511.671 811.808 
501.998 402.205 1372.68 497.866 406.679 1374.62 306.701 697.692 1441.08 
287.462 736.666 1445.93 377.634 -511.671 811.808 250.444 777.197 1435.5 
185.151 848.686 1417.09 -309.772 -362.768 601.836 -199.847 -1250 311.688 
57.1442 -27.9238 797.668 333.123 -1250 567.252 377.634 -511.671 811.808 
989.159 -2500 332.219 1176.36 -2500 329.393 1166.31 -1875 444.232 
1783.89 -2500 272.879 2067.01 -1875 387.705 2310.17 -2500 250.274 
3068.35 -1875 373.392 3645.3 -2500 231.19 4043.88 -2500 263.8 
-111.69 1010.91 1327.32 -257.271 970.661 1297.73 57.1442 -27.9238 797.668 
-309.772 -362.768 601.836 2703.65 -651.484 754.408 2658.21 -579.045 760.132 
2440.41 -447.132 670.452 2633.72 -538.407 764.096 2547.56 -395.142 778.184 
1823.84 -1250 525.136 2491.41 -1250 515.596 1914.46 -625 657.796 
-85.2662 1018.21 1332.69 -111.69 1010.91 1327.32 57.1442 -27.9238 797.668 
2866.35 -905.754 736.664 2800.5 -802.838 743.844 2995.69 -1250 645.224 
2440.41 -447.132 670.452 2302.61 -301.03 791.132 2440.41 -447.132 670.452 
2307.69 -231.685 797.028 2308.95 -214.45 798.496 4813.59 177.525 1317.01 
4762.37 -2500 615.824 4895.29 60.7888 1271.16 4901.82 46.654 1266.23 
2308.95 -214.45 798.496 2440.41 -447.132 670.452 2345.74 -245.877 795.084 
2366.56 -263.666 793.152 2640.1 -401.217 775.292 2580.69 -281.84 786.708 
2440.41 -447.132 670.452 2571.87 -264.131 788.404 1478.15 -425.049 807.72 
1374.84 -399.611 827.796 1146.2 -625 673.908 1319.32 -385.939 838.584 
1260.48 -371.45 850.02 -788.149 -2466.44 -297.024 42.5503 -2500 -139.672 
-179.02 -1875 73.2468 1260.48 -371.45 850.02 1229.7 -351.001 865.06 
1146.2 -625 673.908 1216.58 -263.206 878.096 4509.2 -2500 400.428 
3566.94 -1951 467.568 4276.12 -2500 320.058 4043.88 -2500 263.8 
4459.09 509.029 1409.14 4272.5 -945.935 683.872 4627.98 516.631 1388.11 
4628.36 516.648 1388.07 247.413 -2500 -57.7272 876.131 -2500 295.485 
901.346 -1875 441.664 989.159 -2500 332.219 1166.31 -1875 444.232 
-257.271 970.661 1297.73 -356.761 965.714 1268.54 -309.772 -362.768 601.836 
-491.39 951.755 1231.93 -621.437 -215.226 608.74 3453.69 -419.045 856.044 
4272.5 -945.935 683.872 3541.22 -214.25 902.9 3557.44 -213.408 909.004 
4930.7 -1371.2 1093.7 4930.44 -1059.24 1142.51 4762.37 -2500 615.824 
4927.01 -911.427 1159.75 989.028 -111.081 1024.86 875.231 -33.9926 1121.24 
783.655 -625 849.688 839.989 -10.1187 1151.1 825.481 -0.290539 1163.38 
-650.02 927.242 1193.58 -679.601 924.673 1187.46 -621.437 -215.226 608.74 
-946.16 707.261 1028.26 -866.996 307.226 813.244 -939.898 618.714 974.62 
2995.69 -1250 645.224 3068.35 -1875 373.392 3566.94 -1951 467.568 
4043.88 -2500 263.8 1065.75 -154.757 964.308 989.028 -111.081 1024.86 
1146.2 -625 673.908 783.655 -625 849.688 1210.05 -1250 555.48 
2547.56 -395.142 778.184 2640.1 -401.217 775.292 2440.41 -447.132 670.452 
4628.36 516.648 1388.07 4272.5 -945.935 683.872 4762.37 -2500 615.824 
4653.87 -2500 490.444 4126.18 287.981 1332.21 3968.01 515.365 1232.81 
4272.5 -945.935 683.872 3933.21 576.906 1219.28 3862.36 702.231 1191.73 
-679.601 924.673 1187.46 -956.909 904.514 1128.28 -946.16 707.261 1028.26 
2944.76 -1028.28 728.112 2866.35 -905.754 736.664 2995.69 -1250 645.224 
825.481 -0.290539 1163.38 789.831 -27.3358 1193.8 783.655 -625 849.688 
766.059 18.0828 1213.81 692.371 172.407 1283.6 4133.94 276.589 1336.92 
4126.18 287.981 1332.21 4272.5 -945.935 683.872 4907.62 -69.3377 1258.23 
4901.82 46.654 1266.23 4762.37 -2500 615.824 -896.83 38.5157 726.188 
-621.437 -215.226 608.74 -870.777 209.347 748.212 -866.996 307.226 813.244 
3821.22 507.457 1137.95 3741.48 302.944 1084.02 4272.5 -945.935 683.872 
3718.68 214.138 1059.78 4628.74 516.016 1388.18 4687.04 358.349 1388.02 
4643.69 491.253 1392.7 4651.45 478.404 1395.04 2999.31 -1021.35 726.204 
2993.99 -1108.15 716.048 2995.69 -1250 645.224 2992.8 -1127.56 713.78 
2800.5 -802.838 743.844 2703.65 -651.484 754.408 2440.41 -447.132 670.452 
2366.56 -263.666 793.152 2440.41 -447.132 670.452 2371.15 -255.354 793.784 
2410.3 -184.374 799.176 1497.16 -425.539 806.976 1914.46 -625 657.796 
1582.29 -427.328 803.932 1735.46 -428.38 799.98 -889.684 -1604.24 127.191 
-780.175 -1250 333.288 -901.356 -1150.17 398.588 -908.871 -1040.49 464.368 
3648.36 -154.47 978.012 3592.52 -200.515 929.308 4272.5 -945.935 683.872 
3557.44 -213.408 909.004 3669.81 -138.199 995.812 3648.36 -154.47 978.012 
4272.5 -945.935 683.872 3862.36 702.231 1191.73 3821.22 507.457 1137.95 
4272.5 -945.935 683.872 377.634 -511.671 811.808 185.151 848.686 1417.09 
57.1442 -27.9238 797.668 132.271 906.585 1402.18 -902.8 -2115.33 -151.264 
-179.02 -1875 73.2468 -887.877 -1714.78 67.5752 4861.9 -2405.74 953.784 
5000 -2500 959.808 5000 -2500 959.808 4970.56 -2480.01 958.312 
4861.9 -2405.74 953.784 4861.9 -2405.74 953.784 4970.56 -2480.01 958.312 
5000 -2500 959.808 
LINES 156 468
2 0 1 
2 1 2 
2 3 4 
2 4 5 
2 6 7 
2 7 8 
2 8 9 
2 9 10 
2 10 11 
2 11 12 
2 12 13 
2 13 14 
2 14 15 
2 15 16 
2 16 17 
2 17 18 
2 18 19 
2 19 20 
2 21 22 
2 22 23 
2 23 24 
2 24 25 
2 25 26 
2 26 27 
2 27 28 
2 28 29 
2 29 30 
2 30 31 
2 31 32 
2 32 33 
2 33 34 
2 34 35 
2 35 36 
2 36 37 
2 37 38 
2 39 40 
2 40 41 
2 41 42 
2 42 43 
2 43 44 
2 44 45 
2 45 46 
2 46 47 
2 47 48 
2 48 49 
2 49 50 
2 50 51 
2 51 52 
2 52 53 
2 53 54 
2 54 55 
2 55 56 
2 56 57 
2 57 58 
2 58 59 
2 59 60 
2 60 61 
2 61 62 
2 62 63 
2 63 64 
2 64 65 
2 65 66 
2 66 67 
2 67 68 
2 68 69 
2 69 70 
2 70 71 
2 71 72 
2 72 73 
2 73 74 
2 74 75 
2 75 76 
2 76 77 
2 77 78 
2 78 79 
2 79 80 
2 80 81 
2 81 82 
2 82 83 
2 83 84 
2 84 85 
2 85 86 
2 86 87 
2 87 88 
2 88 89 
2 89 90 
2 90 91 
2 91 92 
2 92 93 
2 93 94 
2 94 95 
2 95 96 
2 96 97 
2 97 98 
2 98 99 
2 99 100 
2 100 101 
2 101 102 
2 102 103 
2 103 104 
2 104 105 
2 105 106 
2 106 107 
2 107 108 
2 108 109 
2 109 110 
2 110 111 
2 111 112 
2 112 113 
2 113 114 
2 114 115 
2 115 116 
2 116 117 
2 117 118 
2 118 119 
2 119 120 
2 120 121 
2 121 122 
2 122 123 
2 123 124 
2 124 125 
2 125 126 
2 126 127 
2 127 128 
2 128 129 
2 129 130 
2 130 131 
2 131 132 
2 132 133 
2 133 134 
2 134 135 
2 135 136 
2 136 137 
2 137 138 
2 138 139 
2 139 140 
2 140 141 
2 141 142 
2 142 143 
2 143 144 
2 144 145 
2 145 146 
2 146 147 
2 147 148 
2 148 149 
2 149 150 
2 150 151 
2 151 152 
2 152 153 
2 153 154 
2 154 155 
2 155 156 
2 156 157 
2 503 504 
2 505 506 
2 506 507 

POLYGONS 196 784
3 158 159 160 
3 159 160 161 
3 160 161 162 
3 163 164 165 
3 164 165 166 
3 165 166 167 
3 166 167 168 
3 169 170 171 
3 170 171 172 
3 171 172 173 
3 174 175 176 
3 175 176 177 
3 176 177 178 
3 177 178 179 
3 178 179 180 
3 181 182 183 
3 182 183 184 
3 183 184 185 
3 184 185 186 
3 185 186 187 
3 188 189 190 
3 189 190 191 
3 190 191 192 
3 193 194 195 
3 194 195 196 
3 197 198 199 
3 198 199 200 
3 201 202 203 
3 202 203 204 
3 203 204 205 
3 206 207 208 
3 207 208 209 
3 208 209 210 
3 211 212 213 
3 212 213 214 
3 213 214 215 
3 214 215 216 
3 215 216 217 
3 216 217 218 
3 217 218 219 
3 218 219 220 
3 219 220 221 
3 222 223 224 
3 223 224 225 
3 224 225 226 
3 227 228 229 
3 228 229 230 
3 229 230 231 
3 232 233 234 
3 233 234 235 
3 234 235 236 
3 235 236 237 
3 238 239 240 
3 239 240 241 
3 240 241 242 
3 243 244 245 
3 244 245 246 
3 247 248 249 
3 248 249 250 
3 249 250 251 
3 250 251 252 
3 253 254 255 
3 254 255 256 
3 255 256 257 
3 256 257 258 
3 259 260 261 
3 260 261 262 
3 263 264 265 
3 264 265 266 
3 265 266 267 
3 268 269 270 
3 269 270 271 
3 272 273 274 
3 273 274 275 
3 274 275 276 
3 277 278 279 
3 278 279 280 
3 279 280 281 
3 280 281 282 
3 281 282 283 
3 284 285 286 
3 285 286 287 
3 286 287 288 
3 289 290 291 
3 292 293 294 
3 293 294 295 
3 294 295 296 
3 297 298 299 
3 298 299 300 
3 299 300 301 
3 300 301 302 
3 303 304 305 
3 304 305 306 
3 305 306 307 
3 306 307 308 
3 309 310 311 
3 310 311 312 
3 311 312 313 
3 314 315 316 
3 315 316 317 
3 316 317 318 
3 319 320 321 
3 320 321 322 
3 321 322 323 
3 324 325 326 
3 325 326 327 
3 326 327 328 
3 327 328 329 
3 328 329 330 
3 329 330 331 
3 330 331 332 
3 333 334 335 
3 334 335 336 
3 337 338 339 
3 338 339 340 
3 339 340 341 
3 342 343 344 
3 345 346 347 
3 348 349 350 
3 349 350 351 
3 352 353 354 
3 353 354 355 
3 356 357 358 
3 357 358 359 
3 360 361 362 
3 361 362 363 
3 364 365 366 
3 365 366 367 
3 368 369 370 
3 369 370 371 
3 370 371 372 
3 373 374 375 
3 376 377 378 
3 377 378 379 
3 380 381 382 
3 381 382 383 
3 384 385 386 
3 385 386 387 
3 388 389 390 
3 389 390 391 
3 390 391 392 
3 393 394 395 
3 394 395 396 
3 395 396 397 
3 398 399 400 
3 399 400 401 
3 402 403 404 
3 403 404 405 
3 406 407 408 
3 407 408 409 
3 408 409 410 
3 411 412 413 
3 412 413 414 
3 413 414 415 
3 414 415 416 
3 417 418 419 
3 418 419 420 
3 421 422 423 
3 422 423 424 
3 423 424 425 
3 426 427 428 
3 429 430 431 
3 430 431 432 
3 433 434 435 
3 434 435 436 
3 435 436 437 
3 438 439 440 
3 441 442 443 
3 444 445 446 
3 445 446 447 
3 446 447 448 
3 449 450 451 
3 452 453 454 
3 455 456 457 
3 456 457 458 
3 459 460 461 
3 460 461 462 
3 463 464 465 
3 464 465 466 
3 467 468 469 
3 468 469 470 
3 471 472 473 
3 474 475 476 
3 475 476 477 
3 478 479 480 
3 479 480 481 
3 482 483 484 
3 483 484 485 
3 486 487 488 
3 487 488 489 
3 490 491 492 
3 493 494 495 
3 496 497 498 
3 497 498 499 
3 500 501 502 
3 508 509 510 

POINT_DATA 511
COLOR_SCALARS VRMLColor 3
1 1 1 1 1 1 1 1 1 
1 1 1 1 1 1 
1 1 1 1 1 1 
1 1 1 1 1 1 
1 1 1 1 1 1 
1 1 1 1 1 1 
1 1 1 1 1 1 
1 1 1 1 1 1 
1 1 1 1 1 1 
1 1 1 1 1 1 
1 1 1 1 1 1 
1 1 1 1 1 1 
1 1 1 1 1 1 
1 1 1 1 1 1 
1 1 1 1 1 1 
1 1 1 1 1 1 
1 1 1 1 1 1 
1 1 1 1 1 1 
1 1 1 1 1 1 
1 1 1 1 1 1 
1 1 1 1 1 1 
1 1 1 1 1 1 
1 1 1 1 1 1 
1 1 1 1 1 1 
1 1 1 1 1 1 
1 1 1 1 1 1 
1 1 1 1 1 1 
1 1 1 1 1 1 
1 1 1 1 1 1 
1 1 1 1 1 1 
1 1 1 1 1 1 
1 1 1 1 1 1 
1 1 1 1 1 1 
1 1 1 1 1 1 
1 1 1 1 1 1 
1 1 1 1 1 1 
1 1 1 1 1 1 
1 1 1 1 1 1 
1 1 1 1 1 1 
1 1 1 1 1 1 
1 1 1 1 1 1 
1 1 1 1 1 1 
1 1 1 1 1 1 
1 1 1 1 1 1 
1 1 1 1 1 1 
1 1 1 1 1 1 
1 1 1 1 1 1 
1 1 1 1 1 1 
1 1 1 1 1 1 
1 1 1 1 1 1 
1 1 1 1 1 1 
1 1 1 1 1 1 
1 1 1 1 1 1 
1 1 1 1 1 1 
1 1 1 1 1 1 
1 1 1 1 1 1 
1 1 1 1 1 1 
1 1 1 1 1 1 
1 1 1 1 1 1 
1 1 1 1 1 1 
1 1 1 1 1 1 
1 1 1 1 1 1 
1 1 1 1 1 1 
1 1 1 1 1 1 
1 1 1 1 1 1 
1 1 1 1 1 1 
1 1 1 1 1 1 
1 1 1 1 1 1 
1 1 1 1 1 1 
1 1 1 1 1 1 
1 1 1 1 1 1 
1 1 1 1 1 1 
1 1 1 1 1 1 
1 1 1 1 1 1 
1 1 1 1 1 1 
1 1 1 1 1 1 
1 1 1 1 1 1 
1 1 1 1 1 1 
1 1 1 0 0.498039 1 
0 0.498039 1 0 0.498039 1 
0 0.498039 1 0 0.498039 1 
0 0.498039 1 0 0.498039 1 
0 0.498039 1 0 0.498039 1 
0 0.498039 1 0 0.498039 1 
0 0.498039 1 0 0.498039 1 
0 0.498039 1 0 0.498039 1 
0 0.498039 1 0 0.498039 1 
0 0.498039 1 0 0.498039 1 
0 0.498039 1 0 0.498039 1 
0 0.498039 1 0 0.498039 1 
0 0.498039 1 0 0.498039 1 
0 0.498039 1 0 0.498039 1 
0 0.498039 1 0 0.498039 1 
0 0.498039 1 0 0.498039 1 
0 0.498039 1 0 0.498039 1 
0 0.498039 1 0 0.498039 1 
0 0.498039 1 0 0.498039 1 
0 0.498039 1 0 0.498039 1 
0 0.498039 1 0 0.498039 1 
0 0.498039 1 0 0.498039 1 
0 0.498039 1 0 0.498039 1 
0 0.498039 1 0 0.498039 1 
0 0.498039 1 0 0.498039 1 
0 0.498039 1 0 0.498039 1 
0 0.498039 1 0 0.498039 1 
0 0.498039 1 0 0.498039 1 
0 0.498039 1 0 0.498039 1 
0 0.498039 1 0 0.498039 1 
0 0.498039 1 0 0.498039 1 
0 0.498039 1 0 0.498039 1 
0 0.498039 1 0 0.498039 1 
0 0.498039 1 0 0.498039 1 
0 0.498039 1 0 0.498039 1 
0 0.498039 1 0 0.498039 1 
0 0.498039 1 0 0.498039 1 
0 0.498039 1 0 0.498039 1 
0 0.498039 1 0 0.498039 1 
0 0.498039 1 0 0.498039 1 
0 0.498039 1 0 0.498039 1 
0 0.498039 1 0 0.498039 1 
0 0.498039 1 0 0.498039 1 
0 0.498039 1 0 0.498039 1 
0 0.498039 1 0 0.498039 1 
0 0.498039 1 0 0.498039 1 
0 0.498039 1 0 0.498039 1 
0 0.498039 1 0 0.498039 1 
0 0.498039 1 0 0.498039 1 
0 0.498039 1 0 0.498039 1 
0 0.498039 1 0 0.498039 1 
0 0.498039 1 0 0.498039 1 
0 0.498039 1 0 0.498039 1 
0 0.498039 1 0 0.498039 1 
0 0.498039 1 0 0.498039 1 
0 0.498039 1 0 0.498039 1 
0 0.498039 1 0 0.498039 1 
0 0.498039 1 0 0.498039 1 
0 0.498039 1 0 0.498039 1 
0 0.498039 1 0 0.498039 1 
0 0.498039 1 0 0.498039 1 
0 0.498039 1 0 0.498039 1 
0 0.498039 1 0 0.498039 1 
0 0.498039 1 0 0.498039 1 
0 0.498039 1 0 0.498039 1 
0 0.498039 1 0 0.498039 1 
0 0.498039 1 0 0.498039 1 
0 0.498039 1 0 0.498039 1 
0 0.498039 1 0 0.498039 1 
0 0.498039 1 0 0.498039 1 
0 0.498039 1 0 0.498039 1 
0 0.498039 1 0 0.498039 1 
0 0.498039 1 0 0.498039 1 
0 0.498039 1 0 0.498039 1 
0 0.498039 1 0 0.498039 1 
0 0.498039 1 0 0.498039 1 
0 0.498039 1 0 0.498039 1 
0 0.498039 1 0 0.498039 1 
0 0.498039 1 0 0.498039 1 
0 0.498039 1 0 0.498039 1 
0 0.498039 1 0 0.498039 1 
0 0.498039 1 0 0.498039 1 
0 0.498039 1 0 0.498039 1 
0 0.498039 1 0 0.498039 1 
0 0.498039 1 0 0.498039 1 
0 0.498039 1 0 0.498039 1 
0 0.498039 1 0 0.498039 1 
0 0.498039 1 0 0.498039 1 
0 0.498039 1 0 0.498039 1 
0 0.498039 1 0 0.498039 1 
0 0.498039 1 0 0.498039 1 
0 0.498039 1 0 0.498039 1 
0 0.498039 1 0 0.498039 1 
0 0.498039 1 0 0.498039 1 
0 0.498039 1 0 0.498039 1 
0 0.498039 1 0 0.498039 1 
0 0.498039 1 0 0.498039 1 
0 0.498039 1 0 0.498039 1 
0 0.498039 1 0 0.498039 1 
0 0.498039 1 0 0.498039 1 
0 0.498039 1 0 0.498039 1 
0 0.498039 1 0 0.498039 1 
0 0.498039 1 0 0.498039 1 
0 0.498039 1 0 0.498039 1 
0 0.498039 1 0 0.498039 1 
0 0.498039 1 0 0.498039 1 
0 0.498039 1 0 0.498039 1 
0 0.498039 1 0 0.498039 1 
0 0.498039 1 0 0.498039 1 
0 0.498039 1 0 0.498039 1 
0 0.498039 1 0 0.498039 1 
0 0.498039 1 0 0.498039 1 
0 0.498039 1 0 0.498039 1 
0 0.498039 1 0 0.498039 1 
0 0.498039 1 0 0.498039 1 
0 0.498039 1 0 0.498039 1 
0 0.498039 1 0 0.498039 1 
0 0.498039 1 0 0.498039 1 
0 0.498039 1 0 0.498039 1 
0 0.498039 1 0 0.498039 1 
0 0.498039 1 0 0.498039 1 
0 0.498039 1 0 0.498039 1 
0 0.498039 1 0 0.498039 1 
0 0.498039 1 0 0.498039 1 
0 0.498039 1 0 0.498039 1 
0 0.498039 1 0 0.498039 1 
0 0.498039 1 0 0.498039 1 
0 0.498039 1 0 0.498039 1 
0 0.498039 1 0 0.498039 1 
0 0.498039 1 0 0.498039 1 
0 0.498039 1 0 0.498039 1 
0 0.498039 1 0 0.498039 1 
0 0.498039 1 0 0.498039 1 
0 0.498039 1 0 0.498039 1 
0 0.498039 1 0 0.498039 1 
0 0.498039 1 0 0.498039 1 
0 0.498039 1 0 0.498039 1 
0 0.498039 1 0 0.498039 1 
0 0.498039 1 0 0.498039 1 
0 0.498039 1 0 0.498039 1 
0 0.498039 1 0 0.498039 1 
0 0.498039 1 0 0.498039 1 
0 0.498039 1 0 0.498039 1 
0 0.498039 1 0 0.498039 1 
0 0.498039 1 0 0.498039 1 
0 0.498039 1 0 0.498039 1 
0 0.498039 1 0 0.498039 1 
0 0.498039 1 0 0.498039 1 
0 0.498039 1 0 0.498039 1 
0 0.498039 1 0 0.498039 1 
0 0.498039 1 0 0.498039 1 
0 0.498039 1 0 0.498039 1 
0 0.498039 1 0 0.498039 1 
0 0.498039 1 0 0.498039 1 
0 0.498039 1 0 0.498039 1 
0 0.498039 1 0 0.498039 1 
0 0.498039 1 0 0.498039 1 
0 0.498039 1 0 0.498039 1 
0 0.498039 1 0 0.498039 1 
0 0.498039 1 0 0.498039 1 
0 0.498039 1 0 0.498039 1 
0 0.498039 1 0 0.498039 1 
0 0.498039 1 0 0.498039 1 
0 0.498039 1 0 0.498039 1 
0 0.498039 1 0 0.498039 1 
0 0.498039 1 0 0.498039 1 
0 0.498039 1 0 0.498039 1 
0 0.498039 1 0 0.498039 1 
0 0.498039 1 0 0.498039 1 
0 0.498039 1 0 0.498039 1 
0 0.498039 1 0 0.498039 1 
0 0.498039 1 0 0.498039 1 
0 0.498039 1 0 0.498039 1 
1 1 1 1 1 1 
1 1 1 1 1 1 
1 1 1 0 0.498039 1 
0 0.498039 1 0 0.498039 1 

