# vtk DataFile Version 3.0
vtk output
ASCII
DATASET POLYDATA
POINTS 6053 float
-2590.91 -1990.49 928.532 -2712.85 -1811.97 970.692 -2712.85 -1811.97 970.692 
-2712.59 -1812.36 970.604 -2590.91 -1990.49 928.532 -2712.59 -1812.36 970.604 
-2712.85 -1811.97 970.692 -2590.91 -1990.49 928.532 -2712.85 -1811.97 970.692 
-2590.91 -1990.49 928.532 -2590.91 -1990.49 928.532 -2508.77 -2110.74 900.132 
-2508.72 -2110.82 900.116 -2508.69 -2110.87 900.104 -2508.59 -2110.96 900.104 
-2414.6 -2234.42 879.928 -2399.21 -2254.62 876.628 -2329.77 -2342.34 862.644 
-2187.35 -2467.51 877.48 -2221.7 -2479.98 839.992 -2256.2 -2492.52 802.336 
-2256.6 -2492.69 801.812 -2254.92 -2494.65 801.672 -2254.6 -2495 801.648 
-2254.6 -2495 801.648 -2254.71 -2495 801.56 -2255.82 -2495 800.528 
-2268.65 -2495 790.368 -3392.17 -2495 50 -3804.38 -2495 -221.639 
-4868.99 -2495 -923.196 -5233.55 -2495 -1200 -5864.61 -804.987 -1200 
-6021.85 -555.004 -1200 -6038.82 -524.405 -1200 -6082.54 -379.502 -1200 
-6205.76 30.3198 -1200 -6794.17 1987.46 -1200 -6822.87 2058.75 -1200 
-6825.48 2064.22 -1200 -6828.79 2075.21 -1200 -6831.47 2081.33 -1200 
-6857.14 2125.48 -1200 -7425.93 3775.38 -1200 -7440.18 3815.02 -1200 
-7454.12 3855.57 -1200 -7462.44 3953.71 -1200 -7467.1 3980.51 -1200 
-8350.19 5831.67 -1200 -8362.21 5862.84 -1200 -8364.92 5870.48 -1200 
-8468.59 6164.59 -1200 -8468.59 6164.59 -1200 -6633.12 6411.12 1351.68 
-6633.12 6411.12 1351.68 -6624.92 6394.52 1354.81 -6602.53 6349.22 1363.33 
-6601.98 6348.12 1363.54 -6601.69 6347.53 1363.65 -6579.37 6297.2 1369.59 
-6568.71 6268.77 1370.36 -6551.37 6222.53 1371.6 -6532.26 6171.55 1372.98 
-6503.57 6095 1375.04 -6487.09 6067.87 1384.14 -6481.2 6053.83 1385.35 
-6448.54 5981.87 1391.82 -6438.5 5959.75 1393.81 -6437.44 5957.4 1394.02 
-6395.24 5864.43 1402.38 -6382.8 5841.96 1407.36 -6381.82 5840.18 1407.76 
-6332.92 5761.12 1432.1 -6304.5 5715.19 1446.24 -6272.24 5663.04 1462.29 
-6270.79 5660.69 1463.02 -6267.31 5654.04 1464.21 -6266.14 5651.8 1464.62 
-6186.75 5499.77 1492.04 -6161.62 5451.66 1500.72 -6125.36 5387.26 1515.83 
-6073.93 5295.95 1537.24 -6066.57 5281.81 1540.49 -6065.54 5279.26 1540.57 
-6044.81 5227.96 1542.2 -6013.92 5151.5 1544.64 -5977.31 5060.89 1547.52 
-5922.1 4928.22 1554.47 -5875.38 4815.95 1560.36 -5856.96 4771 1562.77 
-5856.63 4770.36 1562.79 -5855.85 4768.84 1562.84 -5855.04 4767.28 1562.9 
-5846.54 4729.85 1566.09 -5829.88 4656.46 1572.35 -5817.62 4564 1566.96 
-5811.21 4515.72 1564.14 -5808.45 4495.52 1562.97 -5805.62 4474.79 1561.76 
-5791.1 4424.17 1570.81 -5777.01 4375 1579.59 -5766.13 4352.76 1583.92 
-5752.5 4324.92 1589.34 -5671.1 4115.75 1600.19 -5652.33 4067.52 1602.69 
-5557.79 3824.6 1615.3 -5533.05 3761.05 1618.59 -5488.41 3646.21 1630.35 
-5486.31 3640.82 1630.9 -5485.67 3639.15 1631.07 -5471.3 3602.19 1634.86 
-5458.23 3568.58 1638.3 -5414.88 3457.06 1649.72 -5396.76 3410.45 1654.48 
-5299.71 3165.49 1653.97 -5287.07 3133.6 1653.91 -5269.56 3077.8 1654.71 
-5264.41 3061.37 1654.95 -5195.6 2835.93 1655.62 -5186.28 2812.44 1658.56 
-5175.91 2786.31 1661.82 -5165.82 2760.86 1665 -5157.92 2740.96 1667.48 
-5155.84 2737.59 1667.65 -5154.72 2735.79 1667.74 -5152.39 2732.01 1667.94 
-5150.71 2729.3 1668.08 -5064.66 2557.18 1683.67 -5035.87 2499.61 1688.89 
-5030.62 2486.01 1690.63 -5028.79 2481.26 1691.24 -5028.11 2479.47 1691.48 
-5018.65 2442.38 1688.89 -4952.12 2181.46 1670.71 -4925.92 2078.71 1663.56 
-4901.01 2010.81 1652.15 -4854.76 1884.72 1630.97 -4854.67 1884.39 1630.87 
-4854.27 1883.06 1630.45 -4852.91 1878.51 1629.03 -4829.8 1797.3 1604.13 
-4808.74 1723.26 1581.42 -4759.77 1584.61 1552.74 -4693.06 1395.74 1513.66 
-4655.5 1289.38 1491.66 -4596.92 1071.52 1419.91 -4585.02 1027.27 1405.34 
-4582.49 1017.84 1402.23 -4570.49 973.196 1387.53 -4495.09 692.784 1295.18 
-4492.77 684.356 1292.47 -4485.99 663.003 1285.08 -4485.15 660.367 1284.16 
-4483.67 656.678 1283.26 -4482.33 652.516 1281.85 -4482.29 652.415 1281.82 
-4482.08 651.77 1281.6 -4475.2 630.678 1274.52 -4466.27 606.37 1265.64 
-4466.11 605.943 1265.5 -4465.58 604.594 1265.04 -4394.51 356.265 1190.44 
-4393.41 352.44 1189.29 -4376.03 291.696 1171.04 -4308.57 55.9679 1100.22 
-4307.02 52.1442 1099.55 -4303.95 44.5522 1098.23 -4298.24 31.5763 1096.46 
-4289.3 11.2764 1093.7 -4197.86 -115.006 1068.68 -4185.67 -131.85 1065.35 
-4099.86 -250.363 1041.87 -4080.24 -277.458 1036.5 -4053.42 -304.71 1037.69 
-3980.68 -385.939 1034.54 -3925.98 -447.028 1032.16 -3895.96 -480.559 1030.86 
-3803.13 -584.225 1026.84 -3754.57 -627.088 1034.63 -3680.94 -691.224 1047.19 
-3677.12 -693.815 1048.49 -3561.67 -772.075 1087.6 -3503.32 -811.631 1107.38 
-3387.83 -889.925 1146.51 -3327.03 -931.141 1167.12 -3326.26 -931.693 1167.34 
-3325.77 -932.049 1167.49 -3322.7 -935.605 1167.24 -3273.03 -994.533 1162.08 
-3215.28 -1063.03 1156.09 -3126.56 -1168.27 1146.87 -3104.28 -1194.71 1144.56 
-3098.12 -1204.81 1141.48 -3084 -1227.98 1134.42 -3060 -1268.84 1121.14 
-3038.12 -1306.1 1109.02 -3010.17 -1353.71 1093.53 -2967.38 -1426.58 1069.83 
-2922.19 -1498.62 1049.08 -2915.1 -1509.91 1045.83 -2890.49 -1549.15 1034.53 
-2824.91 -1653.69 1004.42 -2813.03 -1669.29 1001.87 -2807.41 -1679.05 998.592 
-2712.85 -1811.97 970.692 -6448.54 5981.87 1391.82 -6481.2 6053.83 1385.35 
-8350.19 5831.67 -1200 -8362.21 5862.84 -1200 -6186.75 5499.77 1492.04 
-6266.14 5651.8 1464.62 -8350.19 5831.67 -1200 -6272.24 5663.04 1462.29 
-6304.5 5715.19 1446.24 -5165.82 2760.86 1665 -6589.29 2961.79 -148.772 
-5157.92 2740.96 1667.48 -5155.84 2737.59 1667.65 -4655.5 1289.38 1491.66 
-4693.06 1395.74 1513.66 -4596.92 1071.52 1419.91 -4585.02 1027.27 1405.34 
-6601.98 6348.12 1363.54 -6602.53 6349.22 1363.33 -8364.92 5870.48 -1200 
-8468.59 6164.59 -1200 -2807.41 -1679.05 998.592 -2824.91 -1653.69 1004.42 
-3561.67 -772.075 1087.6 -3503.32 -811.631 1107.38 -3895.96 -480.559 1030.86 
-2255.82 -2495 800.528 -3803.13 -584.225 1026.84 -3754.57 -627.088 1034.63 
-5269.56 3077.8 1654.71 -5287.07 3133.6 1653.91 -6589.29 2961.79 -148.772 
-5299.71 3165.49 1653.97 -5396.76 3410.45 1654.48 -5752.5 4324.92 1589.34 
-5766.13 4352.76 1583.92 -5671.1 4115.75 1600.19 -5777.01 4375 1579.59 
-5652.33 4067.52 1602.69 -5557.79 3824.6 1615.3 -5808.45 4495.52 1562.97 
-5811.21 4515.72 1564.14 -7462.44 3953.71 -1200 -7467.1 3980.51 -1200 
-5488.41 3646.21 1630.35 -5533.05 3761.05 1618.59 -6616.49 3166.72 -59.016 
-6809.11 3500.3 -206.988 -7454.12 3855.57 -1200 -5777.01 4375 1579.59 
-7462.44 3953.71 -1200 -5791.1 4424.17 1570.81 -5805.62 4474.79 1561.76 
-3273.03 -994.533 1162.08 -3322.7 -935.605 1167.24 -3327.03 -931.141 1167.12 
-3326.26 -931.693 1167.34 -2922.19 -1498.62 1049.08 -2967.38 -1426.58 1069.83 
-3503.32 -811.631 1107.38 -3387.83 -889.925 1146.51 -6601.98 6348.12 1363.54 
-8364.92 5870.48 -1200 -6601.69 6347.53 1363.65 -6579.37 6297.2 1369.59 
-5396.76 3410.45 1654.48 -5414.88 3457.06 1649.72 -6616.49 3166.72 -59.016 
-5458.23 3568.58 1638.3 -5471.3 3602.19 1634.86 -2254.92 -2494.65 801.672 
-2256.6 -2492.69 801.812 -2254.71 -2495 801.56 -2255.82 -2495 800.528 
-4483.67 656.678 1283.26 -4485.15 660.367 1284.16 -4482.33 652.516 1281.85 
-4482.29 652.415 1281.82 -4307.02 52.1442 1099.55 -4308.57 55.9679 1100.22 
-4311.25 0 1063.48 -4376.03 291.696 1171.04 -4393.41 352.44 1189.29 
-5855.85 4768.84 1562.84 -5856.63 4770.36 1562.79 -5874.38 4775.61 1535.62 
-5856.96 4771 1562.77 -5875.38 4815.95 1560.36 -5811.21 4515.72 1564.14 
-5874.38 4775.61 1535.62 -7467.1 3980.51 -1200 -8350.19 5831.67 -1200 
-5396.76 3410.45 1654.48 -6616.49 3166.72 -59.016 -6589.29 2961.79 -148.772 
-7425.93 3775.38 -1200 -6857.14 2125.48 -1200 -2187.35 -2467.51 877.48 
-2329.77 -2342.34 862.644 -2221.7 -2479.98 839.992 -2256.2 -2492.52 802.336 
-2508.59 -2110.96 900.104 -2508.69 -2110.87 900.104 -2414.6 -2234.42 879.928 
-2399.21 -2254.62 876.628 -6186.75 5499.77 1492.04 -8350.19 5831.67 -1200 
-6161.62 5451.66 1500.72 -6125.36 5387.26 1515.83 -4866.13 1875 1607.3 
-4496.21 625 1244.76 -4808.74 1723.26 1581.42 -4759.77 1584.61 1552.74 
-6487.09 6067.87 1384.14 -6503.57 6095 1375.04 -8362.21 5862.84 -1200 
-6532.26 6171.55 1372.98 -6551.37 6222.53 1371.6 -4311.25 0 1063.48 
-4496.21 625 1244.76 -6021.85 -555.004 -1200 -6038.82 -524.405 -1200 
-2922.19 -1498.62 1049.08 -3503.32 -811.631 1107.38 -2915.1 -1509.91 1045.83 
-2890.49 -1549.15 1034.53 -6013.92 5151.5 1544.64 -6073.93 5295.95 1537.24 
-5874.38 4775.61 1535.62 -8350.19 5831.67 -1200 -4854.27 1883.06 1630.45 
-4866.13 1875 1607.3 -4852.91 1878.51 1629.03 -4829.8 1797.3 1604.13 
-4496.21 625 1244.76 -4866.13 1875 1607.3 -5791.9 1062.16 -261.079 
-6794.17 1987.46 -1200 -6205.76 30.3198 -1200 -6794.17 1987.46 -1200 
-4866.13 1875 1607.3 -6822.87 2058.75 -1200 -4925.92 2078.71 1663.56 
-6825.48 2064.22 -1200 -5030.62 2486.01 1690.63 -6828.79 2075.21 -1200 
-5035.87 2499.61 1688.89 -5064.66 2557.18 1683.67 -5488.41 3646.21 1630.35 
-6616.49 3166.72 -59.016 -5486.31 3640.82 1630.9 -5485.67 3639.15 1631.07 
-4485.99 663.003 1285.08 -4496.21 625 1244.76 -4485.15 660.367 1284.16 
-4482.29 652.415 1281.82 -3038.12 -1306.1 1109.02 -3060 -1268.84 1121.14 
-3126.56 -1168.27 1146.87 -3084 -1227.98 1134.42 -3098.12 -1204.81 1141.48 
-4053.42 -304.71 1037.69 -4080.24 -277.458 1036.5 -3980.68 -385.939 1034.54 
-3925.98 -447.028 1032.16 -2508.77 -2110.74 900.132 -3680.94 -691.224 1047.19 
-2255.82 -2495 800.528 -3754.57 -627.088 1034.63 -3010.17 -1353.71 1093.53 
-3038.12 -1306.1 1109.02 -3215.28 -1063.03 1156.09 -3126.56 -1168.27 1146.87 
-2268.65 -2495 790.368 -2255.82 -2495 800.528 -4311.25 0 1063.48 
-4080.24 -277.458 1036.5 -4099.86 -250.363 1041.87 -4311.25 0 1063.48 
-4694.83 -1779.51 -588.104 -2268.65 -2495 790.368 -3392.17 -2495 50 
-3392.17 -2495 50 -4694.83 -1779.51 -588.104 -3804.38 -2495 -221.639 
-4868.99 -2495 -923.196 -5155.84 2737.59 1667.65 -6589.29 2961.79 -148.772 
-5154.72 2735.79 1667.74 -5152.39 2732.01 1667.94 -5028.11 2479.47 1691.48 
-5028.79 2481.26 1691.24 -5018.65 2442.38 1688.89 -5030.62 2486.01 1690.63 
[...]
POINT_DATA 6053
COLOR_SCALARS VRMLColor 3
1 0 0 1 0 0 1 0 0 
1 0 0 1 0 0 
0.498039 0.498039 0.74902 0.498039 0.498039 0.74902 
0.498039 0.498039 0.74902 1 0 0 
1 0 0 1 0 0 
1 0 0 1 0 0 
1 0 0 1 0 0 
1 0 0 1 0 0 
1 0 0 1 0 0 
1 0 0 1 0 0 
1 0 0 1 0 0 
1 0 0 1 0 0 
1 0 0 1 0 0 
1 0 0 1 0 0 
1 0 0 1 0 0 
1 0 0 1 0 0 
1 0 0 1 0 0 
1 0 0 1 0 0 
1 0 0 1 0 0 
1 0 0 1 0 0 
1 0 0 1 0 0 
1 0 0 1 0 0 
1 0 0 1 0 0 
1 0 0 1 0 0 
1 0 0 1 0 0 
1 0 0 1 0 0 
1 0 0 1 0 0 
1 0 0 1 0 0 
1 0 0 1 0 0 
1 0 0 1 0 0 
1 0 0 1 0 0 
1 0 0 1 0 0 
1 0 0 1 0 0 
1 0 0 1 0 0 
1 0 0 1 0 0 
1 0 0 1 0 0 
1 0 0 1 0 0 
1 0 0 1 0 0 
1 0 0 1 0 0 
1 0 0 1 0 0 
1 0 0 1 0 0 
1 0 0 1 0 0 
1 0 0 1 0 0 
1 0 0 1 0 0 
1 0 0 1 0 0 
1 0 0 1 0 0 
1 0 0 1 0 0 
1 0 0 1 0 0 
1 0 0 1 0 0 
1 0 0 1 0 0 
1 0 0 1 0 0 
1 0 0 1 0 0 
1 0 0 1 0 0 
1 0 0 1 0 0 
1 0 0 1 0 0 
1 0 0 1 0 0 
1 0 0 1 0 0 
1 0 0 1 0 0 
1 0 0 1 0 0 
1 0 0 1 0 0 
1 0 0 1 0 0 
1 0 0 1 0 0 
1 0 0 1 0 0 
1 0 0 1 0 0 
1 0 0 1 0 0 
1 0 0 1 0 0 
1 0 0 1 0 0 
1 0 0 1 0 0 
1 0 0 1 0 0 
1 0 0 1 0 0 
1 0 0 1 0 0 
1 0 0 1 0 0 
1 0 0 1 0 0 
1 0 0 1 0 0 
1 0 0 1 0 0 
1 0 0 1 0 0 
1 0 0 1 0 0 
1 0 0 1 0 0 
1 0 0 1 0 0 
1 0 0 1 0 0 
1 0 0 1 0 0 
1 0 0 1 0 0 
1 0 0 1 0 0 
1 0 0 1 0 0 
1 0 0 1 0 0 
1 0 0 1 0 0 
1 0 0 1 0 0 
1 0 0 1 0 0 
1 0 0 1 0 0 
1 0 0 1 0 0 
1 0 0 1 0 0 
1 0 0 1 0 0 
1 0 0 1 0 0 
1 0 0 1 0 0 
1 0 0 1 0 0 
1 0 0 1 0 0 
1 0 0 1 0 0 
1 0 0 1 0 0 
1 0 0 1 0 0 
1 0 0 1 0 0 
1 0 0 1 0 0 
1 0 0 1 0 0 
0.498039 0.498039 0.74902 0.498039 0.498039 0.74902 
0.498039 0.498039 0.74902 0.498039 0.498039 0.74902 
0.498039 0.498039 0.74902 0.498039 0.498039 0.74902 
0.498039 0.498039 0.74902 0.498039 0.498039 0.74902 
0.498039 0.498039 0.74902 0.498039 0.498039 0.74902 
0.498039 0.498039 0.74902 0.498039 0.498039 0.74902 
0.498039 0.498039 0.74902 0.498039 0.498039 0.74902 
0.498039 0.498039 0.74902 0.498039 0.498039 0.74902 
0.498039 0.498039 0.74902 0.498039 0.498039 0.74902 
0.498039 0.498039 0.74902 0.498039 0.498039 0.74902 
0.498039 0.498039 0.74902 0.498039 0.498039 0.74902 
0.498039 0.498039 0.74902 0.498039 0.498039 0.74902 
0.498039 0.498039 0.74902 0.498039 0.498039 0.74902 
0.498039 0.498039 0.74902 0.498039 0.498039 0.74902 
0.498039 0.498039 0.74902 0.498039 0.498039 0.74902 
0.498039 0.498039 0.74902 0.498039 0.498039 0.74902 
0.498039 0.498039 0.74902 0.498039 0.498039 0.74902 
0.498039 0.498039 0.74902 0.498039 0.498039 0.74902 
0.498039 0.498039 0.74902 0.498039 0.498039 0.74902 
0.498039 0.498039 0.74902 0.498039 0.498039 0.74902 
0.498039 0.498039 0.74902 0.498039 0.498039 0.74902 
0.498039 0.498039 0.74902 0.498039 0.498039 0.74902 
0.498039 0.498039 0.74902 0.498039 0.498039 0.74902 
0.498039 0.498039 0.74902 0.498039 0.498039 0.74902 
0.498039 0.498039 0.74902 0.498039 0.498039 0.74902 
0.498039 0.498039 0.74902 0.498039 0.498039 0.74902 
0.498039 0.498039 0.74902 0.498039 0.498039 0.74902 
0.498039 0.498039 0.74902 0.498039 0.498039 0.74902 
0.498039 0.498039 0.74902 0.498039 0.498039 0.74902 
0.498039 0.498039 0.74902 0.498039 0.498039 0.74902 
0.498039 0.498039 0.74902 0.498039 0.498039 0.74902 
0.498039 0.498039 0.74902 0.498039 0.498039 0.74902 
0.498039 0.498039 0.74902 0.498039 0.498039 0.74902 
0.498039 0.498039 0.74902 0.498039 0.498039 0.74902 
0.498039 0.498039 0.74902 0.498039 0.498039 0.74902 
0.498039 0.498039 0.74902 0.498039 0.498039 0.74902 
0.498039 0.498039 0.74902 0.498039 0.498039 0.74902 
0.498039 0.498039 0.74902 0.498039 0.498039 0.74902 
0.498039 0.498039 0.74902 0.498039 0.498039 0.74902 
0.498039 0.498039 0.74902 0.498039 0.498039 0.74902 
0.498039 0.498039 0.74902 0.498039 0.498039 0.74902 
0.498039 0.498039 0.74902 0.498039 0.498039 0.74902 
0.498039 0.498039 0.74902 0.498039 0.498039 0.74902 
0.498039 0.498039 0.74902 0.498039 0.498039 0.74902 
0.498039 0.498039 0.74902 0.498039 0.498039 0.74902 
0.498039 0.498039 0.74902 0.498039 0.498039 0.74902 
0.498039 0.498039 0.74902 0.498039 0.498039 0.74902 
0.498039 0.498039 0.74902 0.498039 0.498039 0.74902 
0.498039 0.498039 0.74902 0.498039 0.498039 0.74902 
0.498039 0.498039 0.74902 0.498039 0.498039 0.74902 
0.498039 0.498039 0.74902 0.498039 0.498039 0.74902 
0.498039 0.498039 0.74902 0.498039 0.498039 0.74902 
0.498039 0.498039 0.74902 0.498039 0.498039 0.74902 
0.498039 0.498039 0.74902 0.498039 0.498039 0.74902 
0.498039 0.498039 0.74902 0.498039 0.498039 0.74902 
0.498039 0.498039 0.74902 0.498039 0.498039 0.74902 
0.498039 0.498039 0.74902 0.498039 0.498039 0.74902 
0.498039 0.498039 0.74902 0.498039 0.498039 0.74902 
0.498039 0.498039 0.74902 0.498039 0.498039 0.74902 
0.498039 0.498039 0.74902 0.498039 0.498039 0.74902 
0.498039 0.498039 0.74902 0.498039 0.498039 0.74902 
0.498039 0.498039 0.74902 0.498039 0.498039 0.74902 
0.498039 0.498039 0.74902 0.498039 0.498039 0.74902 
0.498039 0.498039 0.74902 0.498039 0.498039 0.74902 
0.498039 0.498039 0.74902 0.498039 0.498039 0.74902 
0.498039 0.498039 0.74902 0.498039 0.498039 0.74902 
0.498039 0.498039 0.74902 0.498039 0.498039 0.74902 
0.498039 0.498039 0.74902 0.498039 0.498039 0.74902 
0.498039 0.498039 0.74902 0.498039 0.498039 0.74902 
0.498039 0.498039 0.74902 0.498039 0.498039 0.74902 
0.498039 0.498039 0.74902 0.498039 0.498039 0.74902 
0.498039 0.498039 0.74902 0.498039 0.498039 0.74902 
0.498039 0.498039 0.74902 0.498039 0.498039 0.74902 
0.498039 0.498039 0.74902 0.498039 0.498039 0.74902 
0.498039 0.498039 0.74902 0.498039 0.498039 0.74902 
0.498039 0.498039 0.74902 0.498039 0.498039 0.74902 
0.498039 0.498039 0.74902 0.498039 0.498039 0.74902 
0.498039 0.498039 0.74902 0.498039 0.498039 0.74902 
0.498039 0.498039 0.74902 0.498039 0.498039 0.74902 
0.498039 0.498039 0.74902 0.498039 0.498039 0.74902 
0.498039 0.498039 0.74902 0.498039 0.498039 0.74902 
0.498039 0.498039 0.74902 0.498039 0.498039 0.74902 
0.498039 0.498039 0.74902 0.498039 0.498039 0.74902 
0.498039 0.498039 0.74902 0.498039 0.498039 0.74902 
0.498039 0.498039 0.74902 0.498039 0.498039 0.74902 
0.498039 0.498039 0.74902 0.498039 0.498039 0.74902 
0.498039 0.498039 0.74902 0.498039 0.498039 0.74902 
0.498039 0.498039 0.74902 0.498039 0.498039 0.74902 
0.498039 0.498039 0.74902 0.498039 0.498039 0.74902 
0.498039 0.498039 0.74902 0.498039 0.498039 0.74902 
0.498039 0.498039 0.74902 0.498039 0.498039 0.74902 
0.498039 0.498039 0.74902 0.498039 0.498039 0.74902 
0.498039 0.498039 0.74902 0.498039 0.498039 0.74902 
0.498039 0.498039 0.74902 0.498039 0.498039 0.74902 
0.498039 0.498039 0.74902 0.498039 0.498039 0.74902 
0.498039 0.498039 0.74902 0.498039 0.498039 0.74902 
0.498039 0.498039 0.74902 0.498039 0.498039 0.74902 
0.498039 0.498039 0.74902 0.498039 0.498039 0.74902 
0.498039 0.498039 0.74902 0.498039 0.498039 0.74902 
0.498039 0.498039 0.74902 0.498039 0.498039 0.74902 
0.498039 0.498039 0.74902 0.498039 0.498039 0.74902 
0.498039 0.498039 0.74902 0.498039 0.498039 0.74902 
0.498039 0.498039 0.74902 0.498039 0.498039 0.74902 
0.498039 0.498039 0.74902 0.498039 0.498039 0.74902 
0.498039 0.498039 0.74902 0.498039 0.498039 0.74902 
0.498039 0.498039 0.74902 0.498039 0.498039 0.74902 
0.498039 0.498039 0.74902 0.498039 0.498039 0.74902 
0.498039 0.498039 0.74902 0.498039 0.498039 0.74902 
0.498039 0.498039 0.74902 0.498039 0.498039 0.74902 
0.498039 0.498039 0.74902 0.498039 0.498039 0.74902 
0.498039 0.498039 0.74902 0.498039 0.498039 0.74902 
0.498039 0.498039 0.74902 0.498039 0.498039 0.74902 
0.498039 0.498039 0.74902 0.498039 0.498039 0.74902 
0.498039 0.498039 0.74902 0.498039 0.498039 0.74902 
0.498039 0.498039 0.74902 0.498039 0.498039 0.74902 
0.498039 0.498039 0.74902 0.498039 0.498039 0.74902 
0.498039 0.498039 0.74902 0.498039 0.498039 0.74902 
0.498039 0.498039 0.74902 0.498039 0.498039 0.74902 
0.498039 0.498039 0.74902 0.498039 0.498039 0.74902 
0.498039 0.498039 0.74902 0.498039 0.498039 0.74902 
0.498039 0.498039 0.74902 0.498039 0.498039 0.74902 
0.498039 0.498039 0.74902 0.498039 0.498039 0.74902 
0.498039 0.498039 0.74902 0.498039 0.498039 0.74902 
0.498039 0.498039 0.74902 0.498039 0.498039 0.74902 
0.498039 0.498039 0.74902 0.498039 0.498039 0.74902 
0.498039 0.498039 0.74902 0.498039 0.498039 0.74902 
0.498039 0.498039 0.74902 0.498039 0.498039 0.74902 
0.498039 0.498039 0.74902 0.498039 0.498039 0.74902 
0.498039 0.498039 0.74902 0.498039 0.498039 0.74902 
0.498039 0.498039 0.74902 0.498039 0.498039 0.74902 
0.498039 0.498039 0.74902 0.498039 0.498039 0.74902 
0.498039 0.498039 0.74902 0.498039 0.498039 0.74902 
0.498039 0.498039 0.74902 0.498039 0.498039 0.74902 
0.498039 0.498039 0.74902 0.498039 0.498039 0.74902 
0.498039 0.498039 0.74902 0.498039 0.498039 0.74902 
0.498039 0.498039 0.74902 0.498039 0.498039 0.74902 
0.498039 0.498039 0.74902 0.498039 0.498039 0.74902 
0.498039 0.498039 0.74902 0.498039 0.498039 0.74902 
0.498039 0.498039 0.74902 0.498039 0.498039 0.74902 
0.498039 0.498039 0.74902 0.498039 0.498039 0.74902 
0.498039 0.498039 0.74902 0.498039 0.498039 0.74902 
0.498039 0.498039 0.74902 0.498039 0.498039 0.74902 
0.498039 0.498039 0.74902 0.498039 0.498039 0.74902 
0.498039 0.498039 0.74902 0.498039 0.498039 0.74902 
0.498039 0.498039 0.74902 0.498039 0.498039 0.74902 
0.498039 0.498039 0.74902 0.498039 0.498039 0.74902 
0.498039 0.498039 0.74902 0.498039 0.498039 0.74902 
0.498039 0.498039 0.74902 0.498039 0.498039 0.74902 
0.498039 0.498039 0.74902 0.498039 0.498039 0.74902 
0.498039 0.498039 0.74902 0.498039 0.498039 0.74902 
0.498039 0.498039 0.74902 0.498039 0.498039 0.74902 
0.498039 0.498039 0.74902 0.498039 0.498039 0.74902 
0.498039 0.498039 0.74902 0.498039 0.498039 0.74902 
0.498039 0.498039 0.74902 0.498039 0.498039 0.74902 
0.498039 0.498039 0.74902 0.498039 0.498039 0.74902 
0.498039 0.498039 0.74902 0.498039 0.498039 0.74902 
0.498039 0.498039 0.74902 0.498039 0.498039 0.74902 
0.498039 0.498039 0.74902 0.498039 0.498039 0.74902 
0.498039 0.498039 0.74902 0.498039 0.498039 0.74902 
0.498039 0.498039 0.74902 0.498039 0.498039 0.74902 
0.498039 0.498039 0.74902 0.498039 0.498039 0.74902 
0.498039 0.498039 0.74902 0.498039 0.498039 0.74902 
0.498039 0.498039 0.74902 0.498039 0.498039 0.74902 
0.498039 0.498039 0.74902 0.498039 0.498039 0.74902 
0.498039 0.498039 0.74902 0.498039 0.498039 0.74902 
0.498039 0.498039 0.74902 0.498039 0.498039 0.74902 
0.498039 0.498039 0.74902 0.498039 0.498039 0.74902 
0.498039 0.498039 0.74902 0.498039 0.498039 0.74902 
0.498039 0.498039 0.74902 0.498039 0.498039 0.74902 
0.498039 0.498039 0.74902 0.498039 0.498039 0.74902 
0.498039 0.498039 0.74902 0.498039 0.498039 0.74902 
0.498039 0.498039 0.74902 0.498039 0.498039 0.74902 
0.498039 0.498039 0.74902 0.498039 0.498039 0.74902 
0.498039 0.498039 0.74902 0.498039 0.498039 0.74902 
0.498039 0.498039 0.74902 0.498039 0.498039 0.74902 
0.498039 0.498039 0.74902 0.498039 0.498039 0.74902 
0.498039 0.498039 0.74902 0.498039 0.498039 0.74902 
0.498039 0.498039 0.74902 0.498039 0.498039 0.74902 
0.498039 0.498039 0.74902 0.498039 0.498039 0.74902 
0.498039 0.498039 0.74902 0.498039 0.498039 0.74902 
0.498039 0.498039 0.74902 0.498039 0.498039 0.74902 
0.498039 0.498039 0.74902 0.498039 0.498039 0.74902 
0.498039 0.498039 0.74902 0.498039 0.498039 0.74902 
0.498039 0.498039 0.74902 0.498039 0.498039 0.74902 
0.498039 0.498039 0.74902 0.498039 0.498039 0.74902 
0.498039 0.498039 0.74902 0.498039 0.498039 0.74902 
0.498039 0.498039 0.74902 0.498039 0.498039 0.74902 
0.498039 0.498039 0.74902 0.498039 0.498039 0.74902 
0.498039 0.498039 0.74902 0.498039 0.498039 0.74902 
0.498039 0.498039 0.74902 0.498039 0.498039 0.74902 
0.498039 0.498039 0.74902 0.498039 0.498039 0.74902 
0.498039 0.498039 0.74902 0.498039 0.498039 0.74902 
0.498039 0.498039 0.74902 0.498039 0.498039 0.74902 
0.498039 0.498039 0.74902 0.498039 0.498039 0.74902 
0.498039 0.498039 0.74902 0.498039 0.498039 0.74902 
0.498039 0.498039 0.74902 0.498039 0.498039 0.74902 
0.498039 0.498039 0.74902 0.498039 0.498039 0.74902 
0.498039 0.498039 0.74902 0.498039 0.498039 0.74902 
0.498039 0.498039 0.74902 0.498039 0.498039 0.74902 
1 0 0 1 0 0 
1 0 0 1 0 0 
1 0 0 1 0 0 
1 0 0 1 0 0 
1 0 0 1 0 0 
1 0 0 1 0 0 
1 0 0 1 0 0 
1 0 0 1 0 0 
1 0 0 1 0 0 
1 0 0 1 0 0 
1 0 0 1 0 0 
1 0 0 1 0 0 
1 0 0 0.498039 0.498039 0.74902 
0.498039 0.498039 0.74902 0.498039 0.498039 0.74902 
0.498039 0.498039 0.74902 0.498039 0.498039 0.74902 
0.498039 0.498039 0.74902 0.498039 0.498039 0.74902 
0.498039 0.498039 0.74902 0.498039 0.498039 0.74902 
0.498039 0.498039 0.74902 0.498039 0.498039 0.74902 
0.498039 0.498039 0.74902 0.498039 0.498039 0.74902 
0.498039 0.498039 0.74902 0.498039 0.498039 0.74902 
0.498039 0.498039 0.74902 0.498039 0.498039 0.74902 
0.498039 0.498039 0.74902 0.498039 0.498039 0.74902 
0.498039 0.498039 0.74902 0.498039 0.498039 0.74902 
0.498039 0.498039 0.74902 0.498039 0.498039 0.74902 
0.498039 0.498039 0.74902 0.498039 0.498039 0.74902 
0.498039 0.498039 0.74902 0.498039 0.498039 0.74902 
0.498039 0.498039 0.74902 0.498039 0.498039 0.74902 
0.498039 0.498039 0.74902 0.498039 0.498039 0.74902 
0.498039 0.498039 0.74902 0.498039 0.498039 0.74902 
0.498039 0.498039 0.74902 0.498039 0.498039 0.74902 
1 0 0 1 0 0 
1 0 0 1 0 0 
1 0 0 1 0 0 
1 0 0 1 0 0 
1 0 0 1 0 0 
1 0 0 1 0 0 
1 0 0 1 0 0 
1 0 0 1 0 0 
1 0 0 1 0 0 
1 0 0 1 0 0 
1 0 0 1 0 0 
1 0 0 1 0 0 
1 0 0 1 0 0 
1 0 0 1 0 0 
1 0 0 1 0 0 
1 0 0 1 0 0 
1 0 0 1 0 0 
1 0 0 1 0 0 
1 0 0 1 0 0 
1 0 0 1 0 0 
1 0 0 1 0 0 
1 0 0 1 0 0 
1 0 0 1 0 0 
1 0 0 1 0 0 
1 0 0 1 0 0 
1 0 0 1 0 0 
1 0 0 1 0 0 
1 0 0 1 0 0 
1 0 0 1 0 0 
1 0 0 1 0 0 
1 0 0 1 0 0 
1 0 0 1 0 0 
1 0 0 1 0 0 
1 0 0 1 0 0 
1 0 0 1 0 0 
1 0 0 1 0 0 
1 0 0 1 0 0 
1 0 0 1 0 0 
1 0 0 1 0 0 
1 0 0 1 0 0 
1 0 0 1 0 0 
1 0 0 1 0 0 
1 0 0 1 0 0 
1 0 0 1 0 0 
1 0 0 1 0 0 
1 0 0 1 0 0 
1 0 0 1 0 0 
1 0 0 1 0 0 
1 0 0 1 0 0 
1 0 0 1 0 0 
1 0 0 1 0 0 
1 0 0 1 0 0 
1 0 0 1 0 0 
1 0 0 1 0 0 
1 0 0 1 0 0 
1 0 0 1 0 0 
1 0 0 1 0 0 
1 0 0 1 0 0 
1 0 0 1 0 0 
1 0 0 1 0 0 
1 0 0 1 0 0 
1 0 0 1 0 0 
1 0 0 1 0 0 
1 0 0 1 0 0 
1 0 0 1 0 0 
1 0 0 1 0 0 
1 0 0 1 0 0 
1 0 0 1 0 0 
1 0 0 1 0 0 
1 0 0 1 0 0 
1 0 0 1 0 0 
1 0 0 1 0 0 
1 0 0 1 0 0 
1 0 0 1 0 0 
1 0 0 1 0 0 
1 0 0 1 0 0 
1 0 0 1 0 0 
1 0 0 1 0 0 
1 0 0 1 0 0 
1 0 0 1 0 0 
1 0 0 1 0 0 
1 0 0 1 0 0 
1 0 0 1 0 0 
1 0 0 1 0 0 
1 0 0 1 0 0 
1 0 0 1 0 0 
1 0 0 1 0 0 
1 0 0 1 0 0 
1 0 0 1 0 0 
1 0 0 1 0 0 
1 0 0 1 0 0 
1 0 0 1 0 0 
1 0 0 1 0 0 
1 0 0 1 0 0 
1 0 0 1 0 0 
1 0 0 1 0 0 
1 0 0 1 0 0 
1 0 0 1 0 0 
1 0 0 1 0 0 
1 0 0 1 0 0 
1 0 0 1 0 0 
1 0 0 1 0 0 
1 0 0 1 0 0 
1 0 0 1 0 0 
1 0 0 1 0 0 
1 0 0 1 0 0 
1 0 0 1 0 0 
1 0 0 1 0 0 
1 0 0 1 0 0 
0.498039 0.498039 0.74902 0.498039 0.498039 0.74902 
0.498039 0.498039 0.74902 0.498039 0.498039 0.74902 
0.498039 0.498039 0.74902 0.498039 0.498039 0.74902 
0.498039 0.498039 0.74902 0.498039 0.498039 0.74902 
0.498039 0.498039 0.74902 0.498039 0.498039 0.74902 
0.498039 0.498039 0.74902 0.498039 0.498039 0.74902 
0.498039 0.498039 0.74902 0.498039 0.498039 0.74902 
0.498039 0.498039 0.74902 0.498039 0.498039 0.74902 
0.498039 0.498039 0.74902 0.498039 0.498039 0.74902 
0.498039 0.498039 0.74902 0.498039 0.498039 0.74902 
0.498039 0.498039 0.74902 0.498039 0.498039 0.74902 
0.498039 0.498039 0.74902 0.498039 0.498039 0.74902 
0.498039 0.498039 0.74902 0.498039 0.498039 0.74902 
0.498039 0.498039 0.74902 0.498039 0.498039 0.74902 
0.498039 0.498039 0.74902 0.498039 0.498039 0.74902 
0.498039 0.498039 0.74902 0.498039 0.498039 0.74902 
0.498039 0.498039 0.74902 0.498039 0.498039 0.74902 
0.498039 0.498039 0.74902 0.498039 0.498039 0.74902 
0.498039 0.498039 0.74902 0.498039 0.498039 0.74902 
0.498039 0.498039 0.74902 0.498039 0.498039 0.74902 
0.498039 0.498039 0.74902 0.498039 0.498039 0.74902 
0.498039 0.498039 0.74902 0.498039 0.498039 0.74902 
0.498039 0.498039 0.74902 0.498039 0.498039 0.74902 
0.498039 0.498039 0.74902 0.498039 0.498039 0.74902 
0.498039 0.498039 0.74902 0.498039 0.498039 0.74902 
0.498039 0.498039 0.74902 0.498039 0.498039 0.74902 
0.498039 0.498039 0.74902 0.498039 0.498039 0.74902 
0.498039 0.498039 0.74902 0.498039 0.498039 0.74902 
0.498039 0.498039 0.74902 0.498039 0.498039 0.74902 
0.498039 0.498039 0.74902 0.498039 0.498039 0.74902 
0.498039 0.498039 0.74902 0.498039 0.498039 0.74902 
0.498039 0.498039 0.74902 0.498039 0.498039 0.74902 
0.498039 0.498039 0.74902 0.498039 0.498039 0.74902 
0.498039 0.498039 0.74902 0.498039 0.498039 0.74902 
0.498039 0.498039 0.74902 0.498039 0.498039 0.74902 
0.498039 0.498039 0.74902 0.498039 0.498039 0.74902 
0.498039 0.498039 0.74902 0.498039 0.498039 0.74902 
0.498039 0.498039 0.74902 0.498039 0.498039 0.74902 
0.498039 0.498039 0.74902 0.498039 0.498039 0.74902 
0.498039 0.498039 0.74902 0.498039 0.498039 0.74902 
0.498039 0.498039 0.74902 0.498039 0.498039 0.74902 
0.498039 0.498039 0.74902 0.498039 0.498039 0.74902 
0.498039 0.498039 0.74902 0.498039 0.498039 0.74902 
0.498039 0.498039 0.74902 0.498039 0.498039 0.74902 
0.498039 0.498039 0.74902 0.498039 0.498039 0.74902 
0.498039 0.498039 0.74902 0.498039 0.498039 0.74902 
0.498039 0.498039 0.74902 0.498039 0.498039 0.74902 
0.498039 0.498039 0.74902 0.498039 0.498039 0.74902 
0.498039 0.498039 0.74902 0.498039 0.498039 0.74902 
0.498039 0.498039 0.74902 0.498039 0.498039 0.74902 
0.498039 0.498039 0.74902 0.498039 0.498039 0.74902 
0.498039 0.498039 0.74902 0.498039 0.498039 0.74902 
0.498039 0.498039 0.74902 0.498039 0.498039 0.74902 
0.498039 0.498039 0.74902 0.498039 0.498039 0.74902 
0.498039 0.498039 0.74902 0.498039 0.498039 0.74902 
0.498039 0.498039 0.74902 0.498039 0.498039 0.74902 
0.498039 0.498039 0.74902 0.498039 0.498039 0.74902 
0.498039 0.498039 0.74902 0.498039 0.498039 0.74902 
0.498039 0.498039 0.74902 0.498039 0.498039 0.74902 
0.498039 0.498039 0.74902 0.498039 0.498039 0.74902 
0.498039 0.498039 0.74902 0.498039 0.498039 0.74902 
0.498039 0.498039 0.74902 0.498039 0.498039 0.74902 
0.498039 0.498039 0.74902 0.498039 0.498039 0.74902 
0.498039 0.498039 0.74902 0.498039 0.498039 0.74902 
0.498039 0.498039 0.74902 0.498039 0.498039 0.74902 
0.498039 0.498039 0.74902 0.498039 0.498039 0.74902 
0.498039 0.498039 0.74902 0.498039 0.498039 0.74902 
0.498039 0.498039 0.74902 0.498039 0.498039 0.74902 
0.498039 0.498039 0.74902 0.498039 0.498039 0.74902 
0.498039 0.498039 0.74902 0.498039 0.498039 0.74902 
0.498039 0.498039 0.74902 0.498039 0.498039 0.74902 
0.498039 0.498039 0.74902 0.498039 0.498039 0.74902 
0.498039 0.498039 0.74902 0.498039 0.498039 0.74902 
0.498039 0.498039 0.74902 0.498039 0.498039 0.74902 
0.498039 0.498039 0.74902 0.498039 0.498039 0.74902 
0.498039 0.498039 0.74902 0.498039 0.498039 0.74902 
0.498039 0.498039 0.74902 0.498039 0.498039 0.74902 
0.498039 0.498039 0.74902 0.498039 0.498039 0.74902 
0.498039 0.498039 0.74902 0.498039 0.498039 0.74902 
0.498039 0.498039 0.74902 0.498039 0.498039 0.74902 
0.498039 0.498039 0.74902 0.498039 0.498039 0.74902 
0.498039 0.498039 0.74902 0.498039 0.498039 0.74902 
0.498039 0.498039 0.74902 0.498039 0.498039 0.74902 
0.498039 0.498039 0.74902 0.498039 0.498039 0.74902 
0.498039 0.498039 0.74902 0.498039 0.498039 0.74902 
0.498039 0.498039 0.74902 0.498039 0.498039 0.74902 
0.498039 0.498039 0.74902 0.498039 0.498039 0.74902 
0.498039 0.498039 0.74902 0.498039 0.498039 0.74902 
0.498039 0.498039 0.74902 0.498039 0.498039 0.74902 
0.498039 0.498039 0.74902 0.498039 0.498039 0.74902 
0.498039 0.498039 0.74902 0.498039 0.498039 0.74902 
0.498039 0.498039 0.74902 0.498039 0.498039 0.74902 
0.498039 0.498039 0.74902 0.498039 0.498039 0.74902 
0.498039 0.498039 0.74902 0.498039 0.498039 0.74902 
0.498039 0.498039 0.74902 0.498039 0.498039 0.74902 
0.498039 0.498039 0.74902 0.498039 0.498039 0.74902 
0.498039 0.498039 0.74902 0.498039 0.498039 0.74902 
0.498039 0.498039 0.74902 0.498039 0.498039 0.74902 
0.498039 0.498039 0.74902 0.498039 0.498039 0.74902 
0.498039 0.498039 0.74902 0.498039 0.498039 0.74902 
0.498039 0.498039 0.74902 0.498039 0.498039 0.74902 
0.498039 0.498039 0.74902 0.498039 0.498039 0.74902 
0.498039 0.498039 0.74902 0.498039 0.498039 0.74902 
0.498039 0.498039 0.74902 0.498039 0.498039 0.74902 