# vtk DataFile Version 3.0
vtk output
ASCII
DATASET POLYDATA
POINTS 483 float
4482.02 -2463.79 780.18 4413.2 -2450.21 743.108 4378.37 -2443.34 724.344 
4363.91 -2440.64 720.608 4303.59 -2410.75 709.144 4277.89 -2419.32 699.528 
4244.47 -2405.36 692.6 4204 -2381.03 693.948 4182.25 -2367.95 694.672 
4144.07 -2355.25 692.792 4047.07 -2286.72 728.664 3982.67 -2241.21 752.484 
3923.15 -2209.72 769.952 3860.94 -2176.79 788.216 3846.59 -2156.1 798.06 
3810.3 -2131 811.248 3734.19 -2084.67 828.22 3690.56 -2062.18 831.056 
3659.91 -2049.95 827.028 3626.76 -2035.82 824.2 3607.18 -2027.47 822.532 
3606.85 -2027.37 822.424 3542.18 -2037.38 800.116 3521.92 -2031.15 793.524 
3481.2 -2028.01 779.872 3455.14 -2028.2 771.044 3432.7 -2025.53 763.56 
3344.51 -2015.04 734.156 3335.95 -2014.02 731.3 3295.31 -2007.5 717.82 
3279.66 -2005.78 711.664 3264.88 -2012.75 706.228 3207.6 -2054.03 685.788 
3156.98 -2071.53 666.888 3063.45 -2132.59 633.236 3013.51 -2130.26 632.708 
2950.91 -2135.76 631.164 2930.36 -2137.12 630.844 2808.34 -2148.01 627.768 
2797.34 -2148.56 627.664 2713.47 -2103.18 647.38 2710.7 -2101.68 648.032 
2681.38 -2067.54 653.384 2645.96 -2035.77 660.648 2645.03 -2034.94 660.836 
2646.49 -2035.23 660.848 2690.11 -2043.83 661.14 2670.39 -2011.05 669.752 
2631.35 -1946.15 686.804 2609.85 -1926.77 696.768 2601.4 -1915.4 702.268 
2560.41 -1847.29 729.328 2530.92 -1798.3 748.796 2489.34 -1754.82 766.468 
2426.4 -1702.92 793.872 2339.21 -1686.91 796.256 2172 -1687.32 800.392 
2142.78 -1688.26 800.78 2116.63 -1689.1 801.132 2089.12 -1686 803.02 
1967.17 -1652.23 808.976 1855.03 -1622.66 814.632 1792.41 -1620.72 819.548 
1789.46 -1620.16 820.004 1698.8 -1579.94 832.556 1618.75 -1543.79 843.6 
1612.84 -1540.68 844.608 1611.15 -1539.79 844.896 1607.13 -1537.87 845.58 
1542.04 -1506.86 856.668 1510.56 -1538.53 861.968 1462.42 -1495.63 870.192 
1341.16 -1400.98 881.484 1326.64 -1395.64 883.168 1270.26 -1334.82 905.488 
1268.22 -1332.81 906.328 1251.57 -1316.45 913.152 1187.06 -1276.07 943.032 
1129.6 -1240.11 969.648 1111.77 -1205.15 974.372 1108.25 -1190.39 977.052 
1080.43 -1126.99 998.42 1064.93 -1091.65 1010.33 1052.07 -1052.54 1020.17 
1028.1 -979.605 1038.52 992.715 -892.895 1058.92 959.629 -807.232 1079.47 
912.764 -726.041 1111.5 906.598 -715.357 1115.71 896.215 -697.369 1122.8 
814.613 -552.124 1181.23 761.058 -473.167 1208.34 739.095 -431.067 1226.13 
715.089 -356.107 1246.92 674.194 -228.412 1282.35 627.969 -84.0741 1322.39 
617.479 -63.8546 1325.69 558.817 -15.2322 1347.91 508.047 35.7266 1371.81 
471.945 143.055 1390.42 449.314 210.334 1402.09 437.631 245.067 1408.12 
409.664 320.984 1420.25 317.799 433.993 1463.19 317.136 436.554 1463.46 
288.719 522.135 1467.7 276.926 527.683 1472.59 124.256 479.958 1458.42 
29.7876 456.547 1453.61 -11.7671 419.573 1457.11 -129.678 314.662 1467.05 
-138.05 307.214 1467.76 -152.436 312.845 1465.09 -248.938 307.601 1456.24 
-330.166 277.713 1429.45 -374.309 261.471 1414.88 -510.176 202.793 1370.95 
-514.878 199.621 1369.55 -637.424 116.972 1332.98 -664.965 50.1516 1329.71 
-694.735 -43.2962 1309.7 -717.183 -164.187 1255.42 -718.209 -169.712 1252.94 
-745.315 -225.341 1216.65 -787.047 -216.249 1191.45 -823.996 -208.199 1169.13 
-856.815 -340.772 1104.08 -861.349 -340.128 1101.23 -951.507 -253.705 1161.35 
-1028.89 -179.529 1212.95 -1028.89 -179.529 1212.95 -1013.78 -230.706 1144.66 
-985.009 -537.924 968.432 -932.98 -1404.8 484.364 -925.318 -1877.1 229.996 
-925.335 -1877.53 229.776 -925.411 -1879.02 229.116 -925.468 -1880.1 228.658 
-925.492 -1880.64 228.398 -937.346 -2195.29 57.5432 -850.26 -2454.4 -63.3192 
-844.006 -2470.73 -70.778 -844.006 -2470.73 -70.778 -556.122 -2505.51 -30.4221 
-236.15 -2500 77.0304 -76.2394 -2500 119.673 585.611 -2500 443.048 
865.454 -2500 620.724 940.967 -2500 624.28 2186.96 -2500 489.644 
3713.42 -2500 471.88 4029.81 -2500 502.964 4257.39 -2500 578.456 
4410.89 -2446.03 640.148 4482.02 -2463.79 780.18 276.926 527.683 1472.59 
288.719 522.135 1467.7 -167.249 -625 774.988 317.136 436.554 1463.46 
133.58 -625 1003.54 317.799 433.993 1463.19 409.664 320.984 1420.25 
2646.49 -2035.23 660.848 2645.03 -2034.94 660.836 2670.39 -2011.05 669.752 
2631.35 -1946.15 686.804 4204 -2381.03 693.948 4244.47 -2405.36 692.6 
4257.39 -2500 578.456 4277.89 -2419.32 699.528 4410.89 -2446.03 640.148 
4303.59 -2410.75 709.144 4363.91 -2440.64 720.608 -637.424 116.972 1332.98 
-514.878 199.621 1369.55 -633.368 -625 749.32 -510.176 202.793 1370.95 
-222.693 -625 748.896 -374.309 261.471 1414.88 -330.166 277.713 1429.45 
3860.94 -2176.79 788.216 3923.15 -2209.72 769.952 3542.18 -2037.38 800.116 
3982.67 -2241.21 752.484 3521.92 -2031.15 793.524 4047.07 -2286.72 728.664 
4144.07 -2355.25 692.792 565.824 -484.084 1102.01 963.584 -1250 939.16 
148.487 -1250 779.248 483.65 -1875 669.78 123.997 -1875 473.52 
585.611 -2500 443.048 -76.2394 -2500 119.673 4144.07 -2355.25 692.792 
4182.25 -2367.95 694.672 4257.39 -2500 578.456 4204 -2381.03 693.948 
1855.03 -1622.66 814.632 1967.17 -1652.23 808.976 1684.66 -1875 704.728 
2186.96 -2500 489.644 940.967 -2500 624.28 1080.43 -1126.99 998.42 
1108.25 -1190.39 977.052 963.584 -1250 939.16 1111.77 -1205.15 974.372 
1129.6 -1240.11 969.648 2797.34 -2148.56 627.664 2808.34 -2148.01 627.768 
2186.96 -2500 489.644 2930.36 -2137.12 630.844 2950.91 -2135.76 631.164 
2950.91 -2135.76 631.164 3013.51 -2130.26 632.708 2186.96 -2500 489.644 
3713.42 -2500 471.88 -932.98 -1404.8 484.364 -985.009 -537.924 968.432 
-695.335 -625 791.068 -1013.78 -230.706 1144.66 -951.507 -253.705 1161.35 
-1028.89 -179.529 1212.95 1080.43 -1126.99 998.42 963.584 -1250 939.16 
1064.93 -1091.65 1010.33 1052.07 -1052.54 1020.17 2713.47 -2103.18 647.38 
2186.96 -2500 489.644 2710.7 -2101.68 648.032 2681.38 -2067.54 653.384 
-925.335 -1877.53 229.776 -925.318 -1877.1 229.996 -695.335 -625 791.068 
-932.98 -1404.8 484.364 761.058 -473.167 1208.34 565.824 -484.084 1102.01 
739.095 -431.067 1226.13 715.089 -356.107 1246.92 1789.46 -1620.16 820.004 
1684.66 -1875 704.728 1698.8 -1579.94 832.556 1618.75 -1543.79 843.6 
1028.1 -979.605 1038.52 565.824 -484.084 1102.01 992.715 -892.895 1058.92 
959.629 -807.232 1079.47 123.997 -1875 473.52 -76.2394 -2500 119.673 
-401.324 -1875 287.281 -236.15 -2500 77.0304 -556.122 -2505.51 -30.4221 
123.997 -1875 473.52 -110.261 -1250 563.656 148.487 -1250 779.248 
-167.249 -625 774.988 133.58 -625 1003.54 123.997 -1875 473.52 
-401.324 -1875 287.281 -110.261 -1250 563.656 -694.127 -1250 517.096 
-222.693 -625 748.896 -633.368 -625 749.32 -861.349 -340.128 1101.23 
-856.815 -340.772 1104.08 -695.335 -625 791.068 -823.996 -208.199 1169.13 
-787.047 -216.249 1191.45 3606.85 -2027.37 822.424 3607.18 -2027.47 822.532 
3846.59 -2156.1 798.06 3626.76 -2035.82 824.2 3659.91 -2049.95 827.028 
1187.06 -1276.07 943.032 1251.57 -1316.45 913.152 963.584 -1250 939.16 
483.65 -1875 669.78 -248.938 307.601 1456.24 -152.436 312.845 1465.09 
-222.693 -625 748.896 -138.05 307.214 1467.76 -167.249 -625 774.988 
-129.678 314.662 1467.05 -11.7671 419.573 1457.11 1789.46 -1620.16 820.004 
1792.41 -1620.72 819.548 1684.66 -1875 704.728 1855.03 -1622.66 814.632 
-694.735 -43.2962 1309.7 -664.965 50.1516 1329.71 -633.368 -625 749.32 
-637.424 116.972 1332.98 1251.57 -1316.45 913.152 1268.22 -1332.81 906.328 
483.65 -1875 669.78 1270.26 -1334.82 905.488 1326.64 -1395.64 883.168 
-556.122 -2505.51 -30.4221 -925.492 -1880.64 228.398 -401.324 -1875 287.281 
-925.468 -1880.1 228.658 -925.411 -1879.02 229.116 2142.78 -1688.26 800.78 
2172 -1687.32 800.392 2186.96 -2500 489.644 2339.21 -1686.91 796.256 
2489.34 -1754.82 766.468 2426.4 -1702.92 793.872 449.314 210.334 1402.09 
471.945 143.055 1390.42 133.58 -625 1003.54 508.047 35.7266 1371.81 
558.817 -15.2322 1347.91 3344.51 -2015.04 734.156 3432.7 -2025.53 763.56 
4029.81 -2500 502.964 3455.14 -2028.2 771.044 4257.39 -2500 578.456 
3481.2 -2028.01 779.872 3521.92 -2031.15 793.524 3846.59 -2156.1 798.06 
3659.91 -2049.95 827.028 3810.3 -2131 811.248 3690.56 -2062.18 831.056 
3734.19 -2084.67 828.22 896.215 -697.369 1122.8 565.824 -484.084 1102.01 
814.613 -552.124 1181.23 761.058 -473.167 1208.34 2609.85 -1926.77 696.768 
2186.96 -2500 489.644 2601.4 -1915.4 702.268 2560.41 -1847.29 729.328 
2646.49 -2035.23 660.848 2670.39 -2011.05 669.752 2690.11 -2043.83 661.14 
-11.7671 419.573 1457.11 29.7876 456.547 1453.61 -167.249 -625 774.988 
124.256 479.958 1458.42 276.926 527.683 1472.59 -401.324 -1875 287.281 
-925.411 -1879.02 229.116 -694.127 -1250 517.096 -695.335 -625 791.068 
-633.368 -625 749.32 -745.315 -225.341 1216.65 -718.209 -169.712 1252.94 
1542.04 -1506.86 856.668 1607.13 -1537.87 845.58 1684.66 -1875 704.728 
1611.15 -1539.79 844.896 1612.84 -1540.68 844.608 2681.38 -2067.54 653.384 
2186.96 -2500 489.644 2645.96 -2035.77 660.648 2645.03 -2034.94 660.836 
-222.693 -625 748.896 -167.249 -625 774.988 -110.261 -1250 563.656 
715.089 -356.107 1246.92 565.824 -484.084 1102.01 674.194 -228.412 1282.35 
627.969 -84.0741 1322.39 2530.92 -1798.3 748.796 2560.41 -1847.29 729.328 
2489.34 -1754.82 766.468 2186.96 -2500 489.644 3279.66 -2005.78 711.664 
3295.31 -2007.5 717.82 4029.81 -2500 502.964 3335.95 -2014.02 731.3 
3344.51 -2015.04 734.156 2186.96 -2500 489.644 2713.47 -2103.18 647.38 
2797.34 -2148.56 627.664 2142.78 -1688.26 800.78 2186.96 -2500 489.644 
2116.63 -1689.1 801.132 2089.12 -1686 803.02 3606.85 -2027.37 822.424 
3846.59 -2156.1 798.06 3542.18 -2037.38 800.116 3860.94 -2176.79 788.216 
1684.66 -1875 704.728 483.65 -1875 669.78 1341.16 -1400.98 881.484 
1326.64 -1395.64 883.168 2089.12 -1686 803.02 2186.96 -2500 489.644 
1967.17 -1652.23 808.976 4363.91 -2440.64 720.608 4378.37 -2443.34 724.344 
4410.89 -2446.03 640.148 4413.2 -2450.21 743.108 4482.02 -2463.79 780.18 
148.487 -1250 779.248 133.58 -625 1003.54 565.824 -484.084 1102.01 
558.817 -15.2322 1347.91 617.479 -63.8546 1325.69 1052.07 -1052.54 1020.17 
963.584 -1250 939.16 1028.1 -979.605 1038.52 565.824 -484.084 1102.01 
409.664 320.984 1420.25 437.631 245.067 1408.12 133.58 -625 1003.54 
449.314 210.334 1402.09 1187.06 -1276.07 943.032 963.584 -1250 939.16 
1129.6 -1240.11 969.648 -925.411 -1879.02 229.116 -925.335 -1877.53 229.776 
-695.335 -625 791.068 -222.693 -625 748.896 -330.166 277.713 1429.45 
-248.938 307.601 1456.24 912.764 -726.041 1111.5 565.824 -484.084 1102.01 
906.598 -715.357 1115.71 896.215 -697.369 1122.8 1684.66 -1875 704.728 
940.967 -2500 624.28 483.65 -1875 669.78 865.454 -2500 620.724 
585.611 -2500 443.048 1341.16 -1400.98 881.484 1462.42 -1495.63 870.192 
1684.66 -1875 704.728 1510.56 -1538.53 861.968 1542.04 -1506.86 856.668 
2609.85 -1926.77 696.768 2631.35 -1946.15 686.804 2186.96 -2500 489.644 
2645.03 -2034.94 660.836 -694.735 -43.2962 1309.7 -633.368 -625 749.32 
-717.183 -164.187 1255.42 -718.209 -169.712 1252.94 3063.45 -2132.59 633.236 
3156.98 -2071.53 666.888 3713.42 -2500 471.88 3207.6 -2054.03 685.788 
3264.88 -2012.75 706.228 627.969 -84.0741 1322.39 565.824 -484.084 1102.01 
617.479 -63.8546 1325.69 -844.006 -2470.73 -70.778 -850.26 -2454.4 -63.3192 
-556.122 -2505.51 -30.4221 -937.346 -2195.29 57.5432 -925.492 -1880.64 228.398 
959.629 -807.232 1079.47 565.824 -484.084 1102.01 912.764 -726.041 1111.5 
3713.42 -2500 471.88 3013.51 -2130.26 632.708 3063.45 -2132.59 633.236 
3279.66 -2005.78 711.664 4029.81 -2500 502.964 3264.88 -2012.75 706.228 
3713.42 -2500 471.88 -695.335 -625 791.068 -787.047 -216.249 1191.45 
-745.315 -225.341 1216.65 4257.39 -2500 578.456 3521.92 -2031.15 793.524 
4144.07 -2355.25 692.792 -861.349 -340.128 1101.23 -695.335 -625 791.068 
-951.507 -253.705 1161.35 1684.66 -1875 704.728 1612.84 -1540.68 844.608 
1618.75 -1543.79 843.6 2663.46 -1953.8 671.172 2678.71 -1978.07 664.476 
2678.71 -1978.07 664.476 2665.39 -1978.47 655.064 2663.46 -1953.8 671.172 
2663.46 -1953.8 671.172 2665.39 -1978.47 655.064 2678.71 -1978.07 664.476 

LINES 155 465
2 0 1 
2 1 2 
2 2 3 
2 3 4 
2 4 5 
2 5 6 
2 6 7 
2 7 8 
2 8 9 
2 9 10 
2 10 11 
2 11 12 
2 12 13 
2 13 14 
2 14 15 
2 15 16 
2 16 17 
2 17 18 
2 18 19 
2 19 20 
2 20 21 
2 21 22 
2 22 23 
2 23 24 
2 24 25 
2 25 26 
2 26 27 
2 27 28 
2 28 29 
2 29 30 
2 30 31 
2 31 32 
2 32 33 
2 33 34 
2 34 35 
2 35 36 
2 36 37 
2 37 38 
2 38 39 
2 39 40 
2 40 41 
2 41 42 
2 42 43 
2 43 44 
2 44 45 
2 45 46 
2 46 47 
2 47 48 
2 48 49 
2 49 50 
2 50 51 
2 51 52 
2 52 53 
2 53 54 
2 54 55 
2 55 56 
2 56 57 
2 57 58 
2 58 59 
2 59 60 
2 60 61 
2 61 62 
2 62 63 
2 63 64 
2 64 65 
2 65 66 
2 66 67 
2 67 68 
2 68 69 
2 69 70 
2 70 71 
2 71 72 
2 72 73 
2 73 74 
2 74 75 
2 75 76 
2 76 77 
2 77 78 
2 78 79 
2 79 80 
2 80 81 
2 81 82 
2 82 83 
2 83 84 
2 84 85 
2 85 86 
2 86 87 
2 87 88 
2 88 89 
2 89 90 
2 90 91 
2 91 92 
2 92 93 
2 93 94 
2 94 95 
2 95 96 
2 96 97 
2 97 98 
2 98 99 
2 99 100 
2 100 101 
2 101 102 
2 102 103 
2 103 104 
2 104 105 
2 105 106 
2 106 107 
2 107 108 
2 108 109 
2 109 110 
2 110 111 
2 111 112 
2 112 113 
2 113 114 
2 114 115 
2 115 116 
2 116 117 
2 117 118 
2 118 119 
2 119 120 
2 120 121 
2 121 122 
2 122 123 
2 123 124 
2 124 125 
2 125 126 
2 126 127 
2 127 128 
2 128 129 
2 130 131 
2 131 132 
2 132 133 
2 133 134 
2 134 135 
2 135 136 
2 136 137 
2 137 138 
2 138 139 
2 139 140 
2 140 141 
2 142 143 
2 143 144 
2 144 145 
2 145 146 
2 146 147 
2 147 148 
2 148 149 
2 149 150 
2 150 151 
2 151 152 
2 152 153 
2 153 154 
2 475 476 
2 477 478 
2 478 479 

POLYGONS 179 716
3 155 156 157 
3 156 157 158 
3 157 158 159 
3 158 159 160 
3 159 160 161 
3 162 163 164 
3 163 164 165 
3 166 167 168 
3 167 168 169 
3 168 169 170 
3 169 170 171 
3 170 171 172 
3 173 174 175 
3 174 175 176 
3 175 176 177 
3 176 177 178 
3 177 178 179 
3 180 181 182 
3 181 182 183 
3 182 183 184 
3 183 184 185 
3 184 185 186 
3 187 188 189 
3 188 189 190 
3 189 190 191 
3 190 191 192 
3 191 192 193 
3 194 195 196 
3 195 196 197 
3 198 199 200 
3 199 200 201 
3 200 201 202 
3 203 204 205 
3 204 205 206 
3 205 206 207 
3 208 209 210 
3 209 210 211 
3 210 211 212 
3 213 214 215 
3 214 215 216 
3 217 218 219 
3 218 219 220 
3 219 220 221 
3 220 221 222 
3 223 224 225 
3 224 225 226 
3 227 228 229 
3 228 229 230 
3 231 232 233 
3 232 233 234 
3 235 236 237 
3 236 237 238 
3 239 240 241 
3 240 241 242 
3 243 244 245 
3 244 245 246 
3 247 248 249 
3 248 249 250 
3 249 250 251 
3 252 253 254 
3 253 254 255 
3 254 255 256 
3 257 258 259 
3 258 259 260 
3 259 260 261 
3 260 261 262 
3 263 264 265 
3 264 265 266 
3 265 266 267 
3 268 269 270 
3 269 270 271 
3 270 271 272 
3 273 274 275 
3 274 275 276 
3 277 278 279 
3 278 279 280 
3 279 280 281 
3 280 281 282 
3 281 282 283 
3 284 285 286 
3 285 286 287 
3 288 289 290 
3 289 290 291 
3 292 293 294 
3 293 294 295 
3 294 295 296 
3 297 298 299 
3 298 299 300 
3 299 300 301 
3 302 303 304 
3 303 304 305 
3 304 305 306 
3 305 306 307 
3 308 309 310 
3 309 310 311 
3 310 311 312 
3 313 314 315 
3 314 315 316 
3 315 316 317 
3 316 317 318 
3 317 318 319 
3 320 321 322 
3 321 322 323 
3 322 323 324 
3 325 326 327 
3 326 327 328 
3 329 330 331 
3 330 331 332 
3 333 334 335 
3 336 337 338 
3 337 338 339 
3 338 339 340 
3 341 342 343 
3 342 343 344 
3 343 344 345 
3 344 345 346 
3 345 346 347 
3 348 349 350 
3 349 350 351 
3 350 351 352 
3 353 354 355 
3 354 355 356 
3 357 358 359 
3 360 361 362 
3 361 362 363 
3 364 365 366 
3 365 366 367 
3 368 369 370 
3 369 370 371 
3 370 371 372 
3 373 374 375 
3 376 377 378 
3 377 378 379 
3 380 381 382 
3 381 382 383 
3 384 385 386 
3 385 386 387 
3 388 389 390 
3 391 392 393 
3 392 393 394 
3 393 394 395 
3 396 397 398 
3 397 398 399 
3 398 399 400 
3 401 402 403 
3 402 403 404 
3 405 406 407 
3 406 407 408 
3 409 410 411 
3 412 413 414 
3 415 416 417 
3 418 419 420 
3 419 420 421 
3 422 423 424 
3 423 424 425 
3 424 425 426 
3 427 428 429 
3 428 429 430 
3 429 430 431 
3 432 433 434 
3 433 434 435 
3 436 437 438 
3 437 438 439 
3 440 441 442 
3 441 442 443 
3 442 443 444 
3 445 446 447 
3 448 449 450 
3 449 450 451 
3 450 451 452 
3 453 454 455 
3 456 457 458 
3 459 460 461 
3 460 461 462 
3 463 464 465 
3 466 467 468 
3 469 470 471 
3 472 473 474 
3 480 481 482 

POINT_DATA 483
COLOR_SCALARS VRMLColor 3
1 1 1 1 1 1 1 1 1 
1 1 1 1 1 1 
1 1 1 1 1 1 
1 1 1 1 1 1 
1 1 1 1 1 1 
1 1 1 1 1 1 
1 1 1 1 1 1 
1 1 1 1 1 1 
1 1 1 1 1 1 
1 1 1 1 1 1 
1 1 1 1 1 1 
1 1 1 1 1 1 
1 1 1 1 1 1 
1 1 1 1 1 1 
1 1 1 1 1 1 
1 1 1 1 1 1 
1 1 1 1 1 1 
1 1 1 1 1 1 
1 1 1 1 1 1 
1 1 1 1 1 1 
1 1 1 1 1 1 
1 1 1 1 1 1 
1 1 1 1 1 1 
1 1 1 1 1 1 
1 1 1 1 1 1 
1 1 1 1 1 1 
1 1 1 1 1 1 
1 1 1 1 1 1 
1 1 1 1 1 1 
1 1 1 1 1 1 
1 1 1 1 1 1 
1 1 1 1 1 1 
1 1 1 1 1 1 
1 1 1 1 1 1 
1 1 1 1 1 1 
1 1 1 1 1 1 
1 1 1 1 1 1 
1 1 1 1 1 1 
1 1 1 1 1 1 
1 1 1 1 1 1 
1 1 1 1 1 1 
1 1 1 1 1 1 
1 1 1 1 1 1 
1 1 1 1 1 1 
1 1 1 1 1 1 
1 1 1 1 1 1 
1 1 1 1 1 1 
1 1 1 1 1 1 
1 1 1 1 1 1 
1 1 1 1 1 1 
1 1 1 1 1 1 
1 1 1 1 1 1 
1 1 1 1 1 1 
1 1 1 1 1 1 
1 1 1 1 1 1 
1 1 1 1 1 1 
1 1 1 1 1 1 
1 1 1 1 1 1 
1 1 1 1 1 1 
1 1 1 1 1 1 
1 1 1 1 1 1 
1 1 1 1 1 1 
1 1 1 1 1 1 
1 1 1 1 1 1 
1 1 1 1 1 1 
1 1 1 1 1 1 
1 1 1 1 1 1 
1 1 1 1 1 1 
1 1 1 1 1 1 
1 1 1 1 1 1 
1 1 1 1 1 1 
1 1 1 1 1 1 
1 1 1 1 1 1 
1 1 1 1 1 1 
1 1 1 1 1 1 
1 1 1 1 1 1 
1 1 1 1 1 1 
0 0.74902 0 0 0.74902 0 
0 0.74902 0 0 0.74902 0 
0 0.74902 0 0 0.74902 0 
0 0.74902 0 0 0.74902 0 
0 0.74902 0 0 0.74902 0 
0 0.74902 0 0 0.74902 0 
0 0.74902 0 0 0.74902 0 
0 0.74902 0 0 0.74902 0 
0 0.74902 0 0 0.74902 0 
0 0.74902 0 0 0.74902 0 
0 0.74902 0 0 0.74902 0 
0 0.74902 0 0 0.74902 0 
0 0.74902 0 0 0.74902 0 
0 0.74902 0 0 0.74902 0 
0 0.74902 0 0 0.74902 0 
0 0.74902 0 0 0.74902 0 
0 0.74902 0 0 0.74902 0 
0 0.74902 0 0 0.74902 0 
0 0.74902 0 0 0.74902 0 
0 0.74902 0 0 0.74902 0 
0 0.74902 0 0 0.74902 0 
0 0.74902 0 0 0.74902 0 
0 0.74902 0 0 0.74902 0 
0 0.74902 0 0 0.74902 0 
0 0.74902 0 0 0.74902 0 
0 0.74902 0 0 0.74902 0 
0 0.74902 0 0 0.74902 0 
0 0.74902 0 0 0.74902 0 
0 0.74902 0 0 0.74902 0 
0 0.74902 0 0 0.74902 0 
0 0.74902 0 0 0.74902 0 
0 0.74902 0 0 0.74902 0 
0 0.74902 0 0 0.74902 0 
0 0.74902 0 0 0.74902 0 
0 0.74902 0 0 0.74902 0 
0 0.74902 0 0 0.74902 0 
0 0.74902 0 0 0.74902 0 
0 0.74902 0 0 0.74902 0 
0 0.74902 0 0 0.74902 0 
0 0.74902 0 0 0.74902 0 
0 0.74902 0 0 0.74902 0 
0 0.74902 0 0 0.74902 0 
0 0.74902 0 0 0.74902 0 
0 0.74902 0 0 0.74902 0 
0 0.74902 0 0 0.74902 0 
0 0.74902 0 0 0.74902 0 
0 0.74902 0 0 0.74902 0 
0 0.74902 0 0 0.74902 0 
0 0.74902 0 0 0.74902 0 
0 0.74902 0 0 0.74902 0 
0 0.74902 0 0 0.74902 0 
0 0.74902 0 0 0.74902 0 
0 0.74902 0 0 0.74902 0 
0 0.74902 0 0 0.74902 0 
0 0.74902 0 0 0.74902 0 
0 0.74902 0 0 0.74902 0 
0 0.74902 0 0 0.74902 0 
0 0.74902 0 0 0.74902 0 
0 0.74902 0 0 0.74902 0 
0 0.74902 0 0 0.74902 0 
0 0.74902 0 0 0.74902 0 
0 0.74902 0 0 0.74902 0 
0 0.74902 0 0 0.74902 0 
0 0.74902 0 0 0.74902 0 
0 0.74902 0 0 0.74902 0 
0 0.74902 0 0 0.74902 0 
0 0.74902 0 0 0.74902 0 
0 0.74902 0 0 0.74902 0 
0 0.74902 0 0 0.74902 0 
0 0.74902 0 0 0.74902 0 
0 0.74902 0 0 0.74902 0 
0 0.74902 0 0 0.74902 0 
0 0.74902 0 0 0.74902 0 
0 0.74902 0 0 0.74902 0 
0 0.74902 0 0 0.74902 0 
0 0.74902 0 0 0.74902 0 
0 0.74902 0 0 0.74902 0 
0 0.74902 0 0 0.74902 0 
0 0.74902 0 0 0.74902 0 
0 0.74902 0 0 0.74902 0 
0 0.74902 0 0 0.74902 0 
0 0.74902 0 0 0.74902 0 
0 0.74902 0 0 0.74902 0 
0 0.74902 0 0 0.74902 0 
0 0.74902 0 0 0.74902 0 
0 0.74902 0 0 0.74902 0 
0 0.74902 0 0 0.74902 0 
0 0.74902 0 0 0.74902 0 
0 0.74902 0 0 0.74902 0 
0 0.74902 0 0 0.74902 0 
0 0.74902 0 0 0.74902 0 
0 0.74902 0 0 0.74902 0 
0 0.74902 0 0 0.74902 0 
0 0.74902 0 0 0.74902 0 
0 0.74902 0 0 0.74902 0 
0 0.74902 0 0 0.74902 0 
0 0.74902 0 0 0.74902 0 
0 0.74902 0 0 0.74902 0 
0 0.74902 0 0 0.74902 0 
0 0.74902 0 0 0.74902 0 
0 0.74902 0 0 0.74902 0 
0 0.74902 0 0 0.74902 0 
0 0.74902 0 0 0.74902 0 
0 0.74902 0 0 0.74902 0 
0 0.74902 0 0 0.74902 0 
0 0.74902 0 0 0.74902 0 
0 0.74902 0 0 0.74902 0 
0 0.74902 0 0 0.74902 0 
0 0.74902 0 0 0.74902 0 
0 0.74902 0 0 0.74902 0 
0 0.74902 0 0 0.74902 0 
0 0.74902 0 0 0.74902 0 
0 0.74902 0 0 0.74902 0 
0 0.74902 0 0 0.74902 0 
0 0.74902 0 0 0.74902 0 
0 0.74902 0 0 0.74902 0 
0 0.74902 0 0 0.74902 0 
0 0.74902 0 0 0.74902 0 
0 0.74902 0 0 0.74902 0 
0 0.74902 0 0 0.74902 0 
0 0.74902 0 0 0.74902 0 
0 0.74902 0 0 0.74902 0 
0 0.74902 0 0 0.74902 0 
0 0.74902 0 0 0.74902 0 
0 0.74902 0 0 0.74902 0 
0 0.74902 0 0 0.74902 0 
0 0.74902 0 0 0.74902 0 
0 0.74902 0 0 0.74902 0 
0 0.74902 0 0 0.74902 0 
0 0.74902 0 0 0.74902 0 
0 0.74902 0 0 0.74902 0 
0 0.74902 0 0 0.74902 0 
0 0.74902 0 0 0.74902 0 
0 0.74902 0 0 0.74902 0 
0 0.74902 0 0 0.74902 0 
0 0.74902 0 0 0.74902 0 
0 0.74902 0 0 0.74902 0 
0 0.74902 0 0 0.74902 0 
0 0.74902 0 0 0.74902 0 
0 0.74902 0 0 0.74902 0 
0 0.74902 0 0 0.74902 0 
0 0.74902 0 0 0.74902 0 
0 0.74902 0 0 0.74902 0 
0 0.74902 0 0 0.74902 0 
0 0.74902 0 0 0.74902 0 
0 0.74902 0 0 0.74902 0 
0 0.74902 0 0 0.74902 0 
0 0.74902 0 0 0.74902 0 
0 0.74902 0 0 0.74902 0 
0 0.74902 0 0 0.74902 0 
0 0.74902 0 0 0.74902 0 
0 0.74902 0 0 0.74902 0 
0 0.74902 0 0 0.74902 0 
0 0.74902 0 0 0.74902 0 
0 0.74902 0 0 0.74902 0 
0 0.74902 0 0 0.74902 0 
0 0.74902 0 0 0.74902 0 
0 0.74902 0 0 0.74902 0 
0 0.74902 0 0 0.74902 0 
0 0.74902 0 0 0.74902 0 
1 1 1 1 1 1 
1 1 1 1 1 1 
1 1 1 0 0.74902 0 
0 0.74902 0 0 0.74902 0 

