# vtk DataFile Version 3.0
vtk output
ASCII
DATASET POLYDATA
POINTS 258 float
-763.799 -2495 -363.295 -928.271 -2495 -250 -969.955 -2495 -221.286 
-1219.52 -2495 -49.3772 -1349.32 -2495 33.4717 -1397.68 -2495 64.3388 
-1888.14 -2495 222.571 -2055.34 -2495 276.512 -2136.89 -2495 302.823 
-2149.22 -2495 306.04 -2358.19 -2495 360.598 -2469.03 -2495 389.536 
-2532.48 -2495 406.104 -2619.11 -2495 428.72 -2699.3 -2495 449.656 
-2759.62 -2495 466.836 -2759.62 -2495 466.836 -2780.23 -2344.13 499.708 
-3531.25 -946.805 963.696 -3674.39 -695.665 1049.41 -3674.39 -695.665 1049.41 
-3673.21 -691.092 1049.89 -3639.98 -659.971 1061.98 -3594.13 -610.682 1083.67 
-3475.61 -466.824 1152.78 -3388.75 -361.39 1203.43 -3300.49 -254.27 1254.89 
-3164.93 -123.845 1306.92 -3144.2 -103.901 1314.88 -3123.85 -84.3212 1322.69 
-3078.42 -45.996 1335.86 -3078.42 -45.996 1335.86 -2987.51 30.7042 1362.22 
-2925.18 66.0677 1366.66 -2908.98 65.56 1369.11 -2743.08 61.8458 1397.63 
-2712.05 61.1511 1402.96 -2582.96 58.2612 1425.16 -2515.42 54.3556 1431.21 
-2498.85 53.0731 1431.94 -2385.72 41.4768 1430.33 -2339.13 35.7345 1427.42 
-2333.65 35.0591 1427.08 -2168.36 14.6868 1416.76 -1984.67 -7.0587 1407.37 
-1983.05 -7.24984 1407.29 -1971.89 -8.57156 1406.72 -1840.77 -25.4737 1396.81 
-1815.01 -31.1177 1394.91 -1787.34 -36.8911 1393.55 -1635.01 -92.9167 1328.37 
-1555.35 -121.583 1295.79 -1542.77 -126.11 1290.65 -1315.67 -207.837 1197.76 
-1202.96 -220.208 1218.77 -1199.19 -221.442 1217.52 -1057.05 -191.856 1210.84 
-1028.34 -185.879 1209.49 -1028.34 -185.879 1209.49 -970.269 -193.582 988.64 
-945.681 -199.341 867.608 -917.347 -340.365 692.292 -900.303 -392.612 627.872 
-900.303 -392.612 627.872 -840.198 -576.864 400.684 -867.323 -721.82 347.439 
-864.141 -850.515 297.648 -866.138 -1082.74 208.516 -896.272 -1751.17 103.993 
-898.404 -1775.57 100.448 -916.114 -2013.95 40.8256 -921.077 -2157.63 -40.792 
-854.014 -2311.28 -174.263 -792.004 -2442.26 -307.44 -763.799 -2495 -363.295 
-2908.98 65.56 1369.11 -2925.18 66.0677 1366.66 -2668.62 -34.7871 1189.78 
-2691.42 -34.959 1198.26 -2707.53 -35.4145 1203.99 -2925.18 66.0677 1366.66 
-2718.48 -35.7242 1207.89 -2737.72 -36.2683 1214.73 -3300.49 -254.27 1254.89 
-2804.21 -38.1488 1238.38 -2881.51 -40.3352 1265.88 -2925.18 66.0677 1366.66 
-2987.51 30.7042 1362.22 -1028.34 -185.879 1209.49 -1057.05 -191.856 1210.84 
-1573.39 -342.224 762.396 -1199.19 -221.442 1217.52 -1315.67 -207.837 1197.76 
-1202.96 -220.208 1218.77 -3123.85 -84.3212 1322.69 -3144.2 -103.901 1314.88 
-2881.51 -40.3352 1265.88 -3164.93 -123.845 1306.92 -3300.49 -254.27 1254.89 
-2619.11 -2495 428.72 -866.138 -1082.74 208.516 -2699.3 -2495 449.656 
-1745.36 -397.73 553.24 -2759.62 -2495 466.836 -2780.23 -2344.13 499.708 
-2385.72 41.4768 1430.33 -2498.85 53.0731 1431.94 -2668.62 -34.7871 1189.78 
-2515.42 54.3556 1431.21 -2582.96 58.2612 1425.16 -1397.68 -2495 64.3388 
-916.114 -2013.95 40.8256 -1888.14 -2495 222.571 -2055.34 -2495 276.512 
-1219.52 -2495 -49.3772 -854.014 -2311.28 -174.263 -1349.32 -2495 33.4717 
-921.077 -2157.63 -40.792 -1397.68 -2495 64.3388 -916.114 -2013.95 40.8256 
-1542.77 -126.11 1290.65 -1555.35 -121.583 1295.79 -1774.35 -284.588 809.628 
-1635.01 -92.9167 1328.37 -1815.01 -31.1177 1394.91 -1787.34 -36.8911 1393.55 
-3674.39 -695.665 1049.41 -3531.25 -946.805 963.696 -3673.21 -691.092 1049.89 
-1745.36 -397.73 553.24 -3639.98 -659.971 1061.98 -3594.13 -610.682 1083.67 
-896.272 -1751.17 103.993 -866.138 -1082.74 208.516 -2358.19 -2495 360.598 
-2469.03 -2495 389.536 -2582.96 58.2612 1425.16 -2712.05 61.1511 1402.96 
-2668.62 -34.7871 1189.78 -2743.08 61.8458 1397.63 -2908.98 65.56 1369.11 
-1984.67 -7.0587 1407.37 -2168.36 14.6868 1416.76 -2199.32 -151.295 1024.17 
-2213.55 -147.763 1029.19 -1962.09 -248.984 850.312 -2233.65 -142.772 1036.28 
-2262.77 -135.543 1046.56 -2168.36 14.6868 1416.76 -2291.19 -128.488 1056.58 
-2333.65 35.0591 1427.08 -2339.13 35.7345 1427.42 -2619.11 -2495 428.72 
-2532.48 -2495 406.104 -866.138 -1082.74 208.516 -2469.03 -2495 389.536 
-1962.09 -248.984 850.312 -2291.19 -128.488 1056.58 -1745.36 -397.73 553.24 
-2668.62 -34.7871 1189.78 -3388.75 -361.39 1203.43 -3300.49 -254.27 1254.89 
-993.412 -366.831 652.824 -917.347 -340.365 692.292 -1309.49 -289.597 724.584 
-945.681 -199.341 867.608 -970.269 -193.582 988.64 -916.114 -2013.95 40.8256 
-898.404 -1775.57 100.448 -2055.34 -2495 276.512 -2136.89 -2495 302.823 
-867.323 -721.82 347.439 -840.198 -576.864 400.684 -1745.36 -397.73 553.24 
-1309.49 -289.597 724.584 -1573.39 -342.224 762.396 -970.269 -193.582 988.64 
-1028.34 -185.879 1209.49 -3594.13 -610.682 1083.67 -1745.36 -397.73 553.24 
-3475.61 -466.824 1152.78 -3388.75 -361.39 1203.43 -2881.51 -40.3352 1265.88 
-2987.51 30.7042 1362.22 -3078.04 -45.8938 1335.8 -3078.42 -45.996 1335.86 
-3123.85 -84.3212 1322.69 -2136.89 -2495 302.823 -898.404 -1775.57 100.448 
-2149.22 -2495 306.04 -896.272 -1751.17 103.993 -2358.19 -2495 360.598 
-1573.39 -342.224 762.396 -1774.35 -284.588 809.628 -1745.36 -397.73 553.24 
-1962.09 -248.984 850.312 -1971.89 -8.57156 1406.72 -1983.05 -7.24984 1407.29 
-2181.88 -155.625 1018.01 -1984.67 -7.0587 1407.37 -2199.32 -151.295 1024.17 
-1745.36 -397.73 553.24 -3531.25 -946.805 963.696 -2780.23 -2344.13 499.708 
-1573.39 -342.224 762.396 -1315.67 -207.837 1197.76 -1774.35 -284.588 809.628 
-1542.77 -126.11 1290.65 -2668.62 -34.7871 1189.78 -2291.19 -128.488 1056.58 
-2385.72 41.4768 1430.33 -2339.13 35.7345 1427.42 -2925.18 66.0677 1366.66 
-2804.21 -38.1488 1238.38 -2737.72 -36.2683 1214.73 -1774.35 -284.588 809.628 
-1840.77 -25.4737 1396.81 -1962.09 -248.984 850.312 -2181.88 -155.625 1018.01 
-2199.32 -151.295 1024.17 -1219.52 -2495 -49.3772 -969.955 -2495 -221.286 
-792.004 -2442.26 -307.44 -928.271 -2495 -250 -763.799 -2495 -363.295 
-1962.09 -248.984 850.312 -2262.77 -135.543 1046.56 -2291.19 -128.488 1056.58 
-917.347 -340.365 692.292 -993.412 -366.831 652.824 -900.303 -392.612 627.872 
-840.198 -576.864 400.684 -2668.62 -34.7871 1189.78 -2707.53 -35.4145 1203.99 
-3300.49 -254.27 1254.89 -2718.48 -35.7242 1207.89 -2168.36 14.6868 1416.76 
-2233.65 -142.772 1036.28 -2213.55 -147.763 1029.19 -3123.85 -84.3212 1322.69 
-2881.51 -40.3352 1265.88 -3078.04 -45.8938 1335.8 -1840.77 -25.4737 1396.81 
-1971.89 -8.57156 1406.72 -2181.88 -155.625 1018.01 -840.198 -576.864 400.684 
-993.412 -366.831 652.824 -1309.49 -289.597 724.584 -792.004 -2442.26 -307.44 
-854.014 -2311.28 -174.263 -1219.52 -2495 -49.3772 -1815.01 -31.1177 1394.91 
-1840.77 -25.4737 1396.81 -1774.35 -284.588 809.628 -867.323 -721.82 347.439 
-1745.36 -397.73 553.24 -864.141 -850.515 297.648 -866.138 -1082.74 208.516 

LINES 69 207
2 0 1 
2 1 2 
2 2 3 
2 3 4 
2 4 5 
2 5 6 
2 6 7 
2 7 8 
2 8 9 
2 9 10 
2 10 11 
2 11 12 
2 12 13 
2 13 14 
2 14 15 
2 16 17 
2 17 18 
2 18 19 
2 20 21 
2 21 22 
2 22 23 
2 23 24 
2 24 25 
2 25 26 
2 26 27 
2 27 28 
2 28 29 
2 29 30 
2 31 32 
2 32 33 
2 33 34 
2 34 35 
2 35 36 
2 36 37 
2 37 38 
2 38 39 
2 39 40 
2 40 41 
2 41 42 
2 42 43 
2 43 44 
2 44 45 
2 45 46 
2 46 47 
2 47 48 
2 48 49 
2 49 50 
2 50 51 
2 51 52 
2 52 53 
2 53 54 
2 54 55 
2 55 56 
2 56 57 
2 58 59 
2 59 60 
2 60 61 
2 61 62 
2 63 64 
2 64 65 
2 65 66 
2 66 67 
2 67 68 
2 68 69 
2 69 70 
2 70 71 
2 71 72 
2 72 73 
2 73 74 

POLYGONS 107 428
3 75 76 77 
3 76 77 78 
3 77 78 79 
3 78 79 80 
3 79 80 81 
3 80 81 82 
3 81 82 83 
3 82 83 84 
3 83 84 85 
3 84 85 86 
3 85 86 87 
3 88 89 90 
3 89 90 91 
3 90 91 92 
3 91 92 93 
3 94 95 96 
3 95 96 97 
3 96 97 98 
3 99 100 101 
3 100 101 102 
3 101 102 103 
3 102 103 104 
3 105 106 107 
3 106 107 108 
3 107 108 109 
3 110 111 112 
3 111 112 113 
3 114 115 116 
3 115 116 117 
3 116 117 118 
3 117 118 119 
3 120 121 122 
3 121 122 123 
3 122 123 124 
3 123 124 125 
3 126 127 128 
3 127 128 129 
3 128 129 130 
3 129 130 131 
3 132 133 134 
3 133 134 135 
3 136 137 138 
3 137 138 139 
3 138 139 140 
3 141 142 143 
3 142 143 144 
3 143 144 145 
3 144 145 146 
3 145 146 147 
3 146 147 148 
3 147 148 149 
3 148 149 150 
3 149 150 151 
3 152 153 154 
3 153 154 155 
3 156 157 158 
3 157 158 159 
3 158 159 160 
3 159 160 161 
3 162 163 164 
3 163 164 165 
3 164 165 166 
3 167 168 169 
3 168 169 170 
3 171 172 173 
3 172 173 174 
3 173 174 175 
3 174 175 176 
3 175 176 177 
3 178 179 180 
3 179 180 181 
3 182 183 184 
3 183 184 185 
3 184 185 186 
3 187 188 189 
3 188 189 190 
3 189 190 191 
3 192 193 194 
3 193 194 195 
3 196 197 198 
3 197 198 199 
3 198 199 200 
3 201 202 203 
3 204 205 206 
3 205 206 207 
3 208 209 210 
3 209 210 211 
3 212 213 214 
3 215 216 217 
3 216 217 218 
3 217 218 219 
3 220 221 222 
3 221 222 223 
3 222 223 224 
3 225 226 227 
3 228 229 230 
3 229 230 231 
3 232 233 234 
3 233 234 235 
3 236 237 238 
3 239 240 241 
3 242 243 244 
3 245 246 247 
3 248 249 250 
3 251 252 253 
3 254 255 256 
3 255 256 257 

POINT_DATA 258
COLOR_SCALARS VRMLColor 3
1 1 1 1 1 1 1 1 1 
1 1 1 1 1 1 
1 1 1 1 1 1 
1 1 1 1 1 1 
1 1 1 1 1 1 
1 1 1 1 1 1 
1 1 1 1 1 1 
1 1 1 1 1 1 
1 1 1 1 1 1 
1 1 1 1 1 1 
1 1 1 1 1 1 
1 1 1 1 1 1 
1 1 1 1 1 1 
1 1 1 1 1 1 
1 1 1 1 1 1 
1 1 1 1 1 1 
1 1 1 1 1 1 
1 1 1 1 1 1 
1 1 1 1 1 1 
1 1 1 1 1 1 
1 1 1 1 1 1 
1 1 1 1 1 1 
1 1 1 1 1 1 
1 1 1 1 1 1 
1 1 1 1 1 1 
1 1 1 1 1 1 
1 1 1 1 1 1 
1 1 1 1 1 1 
1 1 1 1 1 1 
1 1 1 1 1 1 
1 1 1 1 1 1 
1 1 1 1 1 1 
1 1 1 1 1 1 
1 1 1 1 1 1 
1 1 1 1 1 1 
1 1 1 1 1 1 
1 1 1 1 1 1 
0.282353 0.239216 0.541176 0.282353 0.239216 0.541176 
0.282353 0.239216 0.541176 0.282353 0.239216 0.541176 
0.282353 0.239216 0.541176 0.282353 0.239216 0.541176 
0.282353 0.239216 0.541176 0.282353 0.239216 0.541176 
0.282353 0.239216 0.541176 0.282353 0.239216 0.541176 
0.282353 0.239216 0.541176 0.282353 0.239216 0.541176 
0.282353 0.239216 0.541176 0.282353 0.239216 0.541176 
0.282353 0.239216 0.541176 0.282353 0.239216 0.541176 
0.282353 0.239216 0.541176 0.282353 0.239216 0.541176 
0.282353 0.239216 0.541176 0.282353 0.239216 0.541176 
0.282353 0.239216 0.541176 0.282353 0.239216 0.541176 
0.282353 0.239216 0.541176 0.282353 0.239216 0.541176 
0.282353 0.239216 0.541176 0.282353 0.239216 0.541176 
0.282353 0.239216 0.541176 0.282353 0.239216 0.541176 
0.282353 0.239216 0.541176 0.282353 0.239216 0.541176 
0.282353 0.239216 0.541176 0.282353 0.239216 0.541176 
0.282353 0.239216 0.541176 0.282353 0.239216 0.541176 
0.282353 0.239216 0.541176 0.282353 0.239216 0.541176 
0.282353 0.239216 0.541176 0.282353 0.239216 0.541176 
0.282353 0.239216 0.541176 0.282353 0.239216 0.541176 
0.282353 0.239216 0.541176 0.282353 0.239216 0.541176 
0.282353 0.239216 0.541176 0.282353 0.239216 0.541176 
0.282353 0.239216 0.541176 0.282353 0.239216 0.541176 
0.282353 0.239216 0.541176 0.282353 0.239216 0.541176 
0.282353 0.239216 0.541176 0.282353 0.239216 0.541176 
0.282353 0.239216 0.541176 0.282353 0.239216 0.541176 
0.282353 0.239216 0.541176 0.282353 0.239216 0.541176 
0.282353 0.239216 0.541176 0.282353 0.239216 0.541176 
0.282353 0.239216 0.541176 0.282353 0.239216 0.541176 
0.282353 0.239216 0.541176 0.282353 0.239216 0.541176 
0.282353 0.239216 0.541176 0.282353 0.239216 0.541176 
0.282353 0.239216 0.541176 0.282353 0.239216 0.541176 
0.282353 0.239216 0.541176 0.282353 0.239216 0.541176 
0.282353 0.239216 0.541176 0.282353 0.239216 0.541176 
0.282353 0.239216 0.541176 0.282353 0.239216 0.541176 
0.282353 0.239216 0.541176 0.282353 0.239216 0.541176 
0.282353 0.239216 0.541176 0.282353 0.239216 0.541176 
0.282353 0.239216 0.541176 0.282353 0.239216 0.541176 
0.282353 0.239216 0.541176 0.282353 0.239216 0.541176 
0.282353 0.239216 0.541176 0.282353 0.239216 0.541176 
0.282353 0.239216 0.541176 0.282353 0.239216 0.541176 
0.282353 0.239216 0.541176 0.282353 0.239216 0.541176 
0.282353 0.239216 0.541176 0.282353 0.239216 0.541176 
0.282353 0.239216 0.541176 0.282353 0.239216 0.541176 
0.282353 0.239216 0.541176 0.282353 0.239216 0.541176 
0.282353 0.239216 0.541176 0.282353 0.239216 0.541176 
0.282353 0.239216 0.541176 0.282353 0.239216 0.541176 
0.282353 0.239216 0.541176 0.282353 0.239216 0.541176 
0.282353 0.239216 0.541176 0.282353 0.239216 0.541176 
0.282353 0.239216 0.541176 0.282353 0.239216 0.541176 
0.282353 0.239216 0.541176 0.282353 0.239216 0.541176 
0.282353 0.239216 0.541176 0.282353 0.239216 0.541176 
0.282353 0.239216 0.541176 0.282353 0.239216 0.541176 
0.282353 0.239216 0.541176 0.282353 0.239216 0.541176 
0.282353 0.239216 0.541176 0.282353 0.239216 0.541176 
0.282353 0.239216 0.541176 0.282353 0.239216 0.541176 
0.282353 0.239216 0.541176 0.282353 0.239216 0.541176 
0.282353 0.239216 0.541176 0.282353 0.239216 0.541176 
0.282353 0.239216 0.541176 0.282353 0.239216 0.541176 
0.282353 0.239216 0.541176 0.282353 0.239216 0.541176 
0.282353 0.239216 0.541176 0.282353 0.239216 0.541176 
0.282353 0.239216 0.541176 0.282353 0.239216 0.541176 
0.282353 0.239216 0.541176 0.282353 0.239216 0.541176 
0.282353 0.239216 0.541176 0.282353 0.239216 0.541176 
0.282353 0.239216 0.541176 0.282353 0.239216 0.541176 
0.282353 0.239216 0.541176 0.282353 0.239216 0.541176 
0.282353 0.239216 0.541176 0.282353 0.239216 0.541176 
0.282353 0.239216 0.541176 0.282353 0.239216 0.541176 
0.282353 0.239216 0.541176 0.282353 0.239216 0.541176 
0.282353 0.239216 0.541176 0.282353 0.239216 0.541176 
0.282353 0.239216 0.541176 0.282353 0.239216 0.541176 
0.282353 0.239216 0.541176 0.282353 0.239216 0.541176 
0.282353 0.239216 0.541176 0.282353 0.239216 0.541176 
0.282353 0.239216 0.541176 0.282353 0.239216 0.541176 
0.282353 0.239216 0.541176 0.282353 0.239216 0.541176 
0.282353 0.239216 0.541176 0.282353 0.239216 0.541176 
0.282353 0.239216 0.541176 0.282353 0.239216 0.541176 
0.282353 0.239216 0.541176 0.282353 0.239216 0.541176 
0.282353 0.239216 0.541176 0.282353 0.239216 0.541176 
0.282353 0.239216 0.541176 0.282353 0.239216 0.541176 
0.282353 0.239216 0.541176 0.282353 0.239216 0.541176 
0.282353 0.239216 0.541176 0.282353 0.239216 0.541176 
0.282353 0.239216 0.541176 0.282353 0.239216 0.541176 
0.282353 0.239216 0.541176 0.282353 0.239216 0.541176 
0.282353 0.239216 0.541176 0.282353 0.239216 0.541176 
0.282353 0.239216 0.541176 0.282353 0.239216 0.541176 
0.282353 0.239216 0.541176 0.282353 0.239216 0.541176 
0.282353 0.239216 0.541176 0.282353 0.239216 0.541176 
0.282353 0.239216 0.541176 0.282353 0.239216 0.541176 
0.282353 0.239216 0.541176 0.282353 0.239216 0.541176 
0.282353 0.239216 0.541176 0.282353 0.239216 0.541176 
0.282353 0.239216 0.541176 
