# vtk DataFile Version 3.0
vtk output
ASCII
DATASET POLYDATA
POINTS 19423 float
-3078.42 -45.996 1335.86 -3078.33 -45.9701 1335.84 -3078.04 -45.8938 1335.8 
-2935.8 -41.8706 1285.2 -2881.51 -40.3352 1265.88 -2834.94 -39.018 1249.32 
-2804.21 -38.1488 1238.38 -2737.72 -36.2683 1214.73 -2723.08 -35.8544 1209.53 
-2718.48 -35.7242 1207.89 -2707.53 -35.4145 1203.99 -2691.42 -34.959 1198.26 
-2673.61 -34.8248 1191.64 -2668.62 -34.7871 1189.78 -2291.19 -128.488 1056.58 
-2262.77 -135.543 1046.56 -2233.65 -142.772 1036.28 -2213.55 -147.763 1029.19 
-2204.57 -149.992 1026.02 -2199.32 -151.295 1024.17 -2183.25 -155.286 1018.49 
-2181.88 -155.625 1018.01 -2144.49 -171.507 989.484 -1962.09 -248.984 850.312 
-1774.35 -284.588 809.628 -1702.97 -305.061 792.852 -1573.39 -342.224 762.396 
-1309.49 -289.597 724.584 -1064.71 -349.411 669.012 -993.412 -366.831 652.824 
-952.466 -378.169 641.852 -900.303 -392.612 627.872 -900.303 -392.612 627.872 
-846.802 -274.666 618.188 -875.621 51.0531 637.06 -817.667 368.648 633.232 
-792.381 503.402 628.332 -775.803 602.183 633.948 -784.39 885.175 661.076 
-829.252 2066.43 793.012 -829.218 2132.64 795.124 -839.987 2352.69 802.744 
-843.456 2510.36 780.952 -845.319 2657.65 760.524 -846.801 2668.94 759.028 
-862.167 2843.15 690.544 -864.702 2858.62 691.548 -878.566 3017.55 701.444 
-907.325 3299.63 763.484 -965.656 3882.15 880.252 -975.514 3992.07 889.98 
-989.445 4179.56 875.692 -1015.58 4574.96 810.776 -1019.27 4650.42 798.392 
-1039.25 4870.06 836.488 -1044.05 4934.79 838.968 -1070.16 5009.98 839.516 
-1119 5225.24 844.032 -1125.2 5252.48 843.54 -1138.94 5357.69 842.38 
-1142.33 5811.43 841.504 -1143.77 5842.79 841.356 -1155.69 6025.84 883.256 
-1162.72 6133.91 907.992 -1162.72 6133.91 907.992 -1386.82 6033.44 919.744 
-1398.71 6031.3 921.068 -1473.22 6017.88 929.356 -1513.99 5980.75 936.728 
-1532.46 5963.93 940.064 -1543.13 5954.44 942.044 -1594.49 5933.86 956.996 
-1692.66 5936.74 981.928 -1844.15 5943.49 1021 -1849.25 5943.71 1022.31 
-1945.92 5935.13 1048.12 -2058.47 5925.13 1078.16 -2137.85 5830.44 1105.33 
-2138.39 5829.49 1105.45 -2138.43 5829.02 1105.38 -2228.91 5647.57 1121.38 
-2238.29 5628.75 1123.04 -2257.82 5597.31 1125.68 -2332.82 5476.55 1135.83 
-2382.6 5375.41 1137.16 -2434.64 5315.92 1136.15 -2438.07 5311.99 1136.08 
-2444.29 5304.89 1135.96 -2480.95 5260.42 1133.88 -2505.24 5133.49 1132.18 
-2536.29 4962.24 1128.4 -2566.45 4795.94 1124.74 -2558.79 4781.55 1125.02 
-2538.54 4743.53 1125.76 -2520.56 4614.2 1125.32 -2397.25 4442.01 1084.54 
-2315.9 4236.28 1062.5 -2311.67 4225.58 1061.36 -2202.06 4205.12 1046.95 
-2154.01 4098.96 1034.85 -2101.67 3983.29 1021.66 -2430.36 3947.93 1059.1 
-2506.99 3915.99 1056.91 -2597.84 3905.58 1057.21 -2666.4 3897.73 1057.44 
-2751.47 3887.98 1057.72 -2789.96 3846.87 1053.99 -2865.49 3787.08 1053.57 
-2910.65 3799.03 1055.18 -3002.7 3841.98 1075.12 -3124.61 3896.74 1099.63 
-3189.42 3925.86 1112.66 -3281.8 3943.43 1130.77 -3326.71 3951.98 1139.58 
-3542.06 4004.84 1199.71 -3572.53 4013.58 1210.12 -3605.33 4022.98 1221.32 
-3609.76 4034.31 1223.16 -3709.42 4288.95 1264.63 -3741.96 4373.09 1279.02 
-3806.19 4542.85 1310.54 -3869.76 4710.84 1341.73 -3871.12 4714.16 1342.38 
-3902.93 4791.85 1357.6 -3940.14 4865.95 1362.37 -3984.1 4953.48 1368 
-4026 5036.91 1373.38 -4077.46 5131.67 1373.99 -4175.17 5265.61 1339.47 
-4203.21 5304.06 1329.56 -4213.52 5318.18 1325.92 -4251.33 5316.69 1327.3 
-4313.48 5298.28 1325.61 -4359 5382.92 1303.51 -4401.44 5461.89 1282.94 
-4479.89 5612.12 1247.12 -4483.25 5618.55 1245.6 -4504.47 5659.18 1235.91 
-4568 5778.15 1205.5 -4578.64 5795.85 1199.24 -4637.74 5907.16 1171.3 
-4649.89 5913.97 1169.62 -4779.3 5916.67 1140.95 -4821.4 5924.6 1132.72 
-4846.17 5929.26 1127.87 -4939.43 5946.89 1109.64 -4945.7 5857.06 1133.04 
-4958.89 5669.33 1181.98 -4970.32 5506.51 1224.44 -4966.89 5414.41 1242.47 
-4966.76 5399.57 1245.64 -4974.51 5305.44 1264.94 -4960.37 5172.88 1279.15 
-4942.85 5008.66 1296.74 -4954.74 4989.39 1306.04 -4936.05 4940.46 1314.9 
-4925.03 4914.46 1314.84 -4870.23 4742.73 1393.1 -4862.07 4717.15 1404.76 
-4792.21 4542.05 1423.48 -4683.77 4285.68 1424.15 -4670.68 4254.72 1424.23 
-4625.82 4136.72 1424.52 -4586.26 4032.68 1424.78 -4526.43 3849.04 1453.96 
-4513.95 3770.8 1468.84 -4456.52 3532.59 1469.99 -4450.58 3508 1470.1 
-4419.66 3372.61 1471.05 -4330.5 2982.27 1473.76 -4328.87 2974.68 1474.02 
-4327.33 2967.73 1474.15 -4303.23 2885.27 1464.03 -4282.07 2899.3 1457.58 
-4237.06 2930.85 1437.7 -4218.82 2943.25 1431.04 -4219.49 2921.97 1430.49 
-4230.76 2804.6 1438.32 -4233.65 2730.15 1437.15 -4236.03 2668.81 1436.19 
-4243.12 2486.01 1433.32 -4240.19 2436.38 1425.56 -4096.78 2425.91 1377.72 
-4050.36 2422.52 1362.23 -4049.66 2196.67 1331.02 -4049.26 2069.96 1313.5 
-4082.62 1975.26 1324.77 -4107.05 1900.82 1332.91 -4043.31 1639.95 1257.14 
-4032.61 1596.13 1244.42 -4020.39 1546.11 1229.89 -4006.29 1551.41 1225.23 
-3972.32 1484.19 1216.46 -3925.62 1442.71 1206.99 -3819.17 1348.14 1185.4 
-3720.41 1260.41 1165.36 -3596.65 1198.38 1136.06 -3586.95 1065.42 1144.97 
-3537.16 903.857 1166.81 -3533.3 894.518 1168.36 -3494.72 801.122 1183.82 
-3493.1 797.207 1184.47 -3384.37 533.893 1228.06 -3350.78 493.04 1232.8 
-3329.45 416.482 1246.72 -3243.52 222.644 1278.09 -3241.52 219.385 1278.79 
-3142.41 58.1178 1313.47 -3078.42 -45.996 1335.86 -1155.69 6025.84 883.256 
-1386.82 6033.44 919.744 -1162.72 6133.91 907.992 -1155.69 6025.84 883.256 
-1143.77 5842.79 841.356 -1386.82 6033.44 919.744 -2138.43 5829.02 1105.38 
-2137.85 5830.44 1105.33 -2058.47 5925.13 1078.16 -1398.71 6031.3 921.068 
-1386.82 6033.44 919.744 -1467.24 5513.7 817.992 -1473.22 6017.88 929.356 
-1398.71 6031.3 921.068 -1467.24 5513.7 817.992 -2138.43 5829.02 1105.38 
-2138.39 5829.49 1105.45 -2137.85 5830.44 1105.33 -1513.99 5980.75 936.728 
-1473.22 6017.88 929.356 -1467.24 5513.7 817.992 -4939.43 5946.89 1109.64 
-4846.17 5929.26 1127.87 -4084.87 4053.6 1007.44 -1532.46 5963.93 940.064 
-1513.99 5980.75 936.728 -1467.24 5513.7 817.992 -1543.13 5954.44 942.044 
-1532.46 5963.93 940.064 -1467.24 5513.7 817.992 -4945.7 5857.06 1133.04 
-4939.43 5946.89 1109.64 -4084.87 4053.6 1007.44 -4846.17 5929.26 1127.87 
-4821.4 5924.6 1132.72 -4084.87 4053.6 1007.44 -1594.49 5933.86 956.996 
-1543.13 5954.44 942.044 -1467.24 5513.7 817.992 -1849.25 5943.71 1022.31 
-1844.15 5943.49 1021 -1956.38 5441.12 919.952 -1945.92 5935.13 1048.12 
-1849.25 5943.71 1022.31 -1956.38 5441.12 919.952 -1692.66 5936.74 981.928 
-1594.49 5933.86 956.996 -1467.24 5513.7 817.992 -2058.47 5925.13 1078.16 
-1945.92 5935.13 1048.12 -1956.38 5441.12 919.952 -1844.15 5943.49 1021 
-1692.66 5936.74 981.928 -1956.38 5441.12 919.952 -4821.4 5924.6 1132.72 
-4779.3 5916.67 1140.95 -4084.87 4053.6 1007.44 -1143.77 5842.79 841.356 
-1467.24 5513.7 817.992 -1386.82 6033.44 919.744 -4779.3 5916.67 1140.95 
-4649.89 5913.97 1169.62 -4084.87 4053.6 1007.44 -2138.43 5829.02 1105.38 
-2058.47 5925.13 1078.16 -1956.38 5441.12 919.952 -4649.89 5913.97 1169.62 
-4637.74 5907.16 1171.3 -4084.87 4053.6 1007.44 -1143.77 5842.79 841.356 
-1142.33 5811.43 841.504 -1467.24 5513.7 817.992 -4637.74 5907.16 1171.3 
-4578.64 5795.85 1199.24 -4084.87 4053.6 1007.44 -4958.89 5669.33 1181.98 
-4945.7 5857.06 1133.04 -4084.87 4053.6 1007.44 -2228.91 5647.57 1121.38 
-2138.43 5829.02 1105.38 -1956.38 5441.12 919.952 -1692.66 5936.74 981.928 
-1467.24 5513.7 817.992 -1956.38 5441.12 919.952 -4578.64 5795.85 1199.24 
-4568 5778.15 1205.5 -4084.87 4053.6 1007.44 -2238.29 5628.75 1123.04 
-2228.91 5647.57 1121.38 -1956.38 5441.12 919.952 -2257.82 5597.31 1125.68 
-2238.29 5628.75 1123.04 -1956.38 5441.12 919.952 -4568 5778.15 1205.5 
-4504.47 5659.18 1235.91 -4084.87 4053.6 1007.44 -4970.32 5506.51 1224.44 
-4958.89 5669.33 1181.98 -4084.87 4053.6 1007.44 -2332.82 5476.55 1135.83 
-2257.82 5597.31 1125.68 -1956.38 5441.12 919.952 -1142.33 5811.43 841.504 
-1138.94 5357.69 842.38 -1467.24 5513.7 817.992 -4504.47 5659.18 1235.91 
-4483.25 5618.55 1245.6 -4084.87 4053.6 1007.44 -4483.25 5618.55 1245.6 
-4479.89 5612.12 1247.12 -4084.87 4053.6 1007.44 -2382.6 5375.41 1137.16 
-2332.82 5476.55 1135.83 -1956.38 5441.12 919.952 -4966.89 5414.41 1242.47 
-4970.32 5506.51 1224.44 -4084.87 4053.6 1007.44 -4479.89 5612.12 1247.12 
-4401.44 5461.89 1282.94 -4084.87 4053.6 1007.44 -4966.76 5399.57 1245.64 
-4966.89 5414.41 1242.47 -4084.87 4053.6 1007.44 -4925.03 4914.46 1314.84 
-4936.05 4940.46 1314.9 -4954.74 4989.39 1306.04 -2382.6 5375.41 1137.16 
-1956.38 5441.12 919.952 -2286.54 5112.97 939.912 -4974.51 5305.44 1264.94 
-4966.76 5399.57 1245.64 -4084.87 4053.6 1007.44 -1138.94 5357.69 842.38 
-1125.2 5252.48 843.54 -1467.24 5513.7 817.992 -4401.44 5461.89 1282.94 
-4359 5382.92 1303.51 -4084.87 4053.6 1007.44 -2434.64 5315.92 1136.15 
-2382.6 5375.41 1137.16 -2286.54 5112.97 939.912 -2438.07 5311.99 1136.08 
-2434.64 5315.92 1136.15 -2286.54 5112.97 939.912 -2444.29 5304.89 1135.96 
-2438.07 5311.99 1136.08 -2286.54 5112.97 939.912 -1125.2 5252.48 843.54 
-1119 5225.24 844.032 -1467.24 5513.7 817.992 -4960.37 5172.88 1279.15 
-4974.51 5305.44 1264.94 -4084.87 4053.6 1007.44 -1467.24 5513.7 817.992 
-1896.25 4767.14 864.668 -1956.38 5441.12 919.952 -2480.95 5260.42 1133.88 
-2444.29 5304.89 1135.96 -2286.54 5112.97 939.912 -4359 5382.92 1303.51 
-4313.48 5298.28 1325.61 -4084.87 4053.6 1007.44 -2505.24 5133.49 1132.18 
-2480.95 5260.42 1133.88 -2286.54 5112.97 939.912 -1119 5225.24 844.032 
-1070.16 5009.98 839.516 -1467.24 5513.7 817.992 -1896.25 4767.14 864.668 
-2286.54 5112.97 939.912 -1956.38 5441.12 919.952 -2536.29 4962.24 1128.4 
-2505.24 5133.49 1132.18 -2286.54 5112.97 939.912 -4251.33 5316.69 1327.3 
-4213.52 5318.18 1325.92 -3678.25 3837.51 935.292 -4313.48 5298.28 1325.61 
-4251.33 5316.69 1327.3 -3678.25 3837.51 935.292 -4213.52 5318.18 1325.92 
-4203.21 5304.06 1329.56 -3678.25 3837.51 935.292 -4203.21 5304.06 1329.56 
-4175.17 5265.61 1339.47 -3678.25 3837.51 935.292 -1070.16 5009.98 839.516 
[...]
POINT_DATA 19423
COLOR_SCALARS VRMLColor 3
1 1 1 1 1 1 1 1 1 
1 1 1 1 1 1 
1 1 1 1 1 1 
1 1 1 1 1 1 
1 1 1 1 1 1 
1 1 1 1 1 1 
1 1 1 1 1 1 
1 1 1 1 1 1 
1 1 1 1 1 1 
1 1 1 1 1 1 
1 1 1 1 1 1 
1 1 1 1 1 1 
1 1 1 1 1 1 
1 1 1 1 1 1 
1 1 1 1 1 1 
1 1 1 1 1 1 
1 1 1 1 1 1 
1 1 1 1 1 1 
1 1 1 1 1 1 
1 1 1 1 1 1 
1 1 1 1 1 1 
1 1 1 1 1 1 
1 1 1 1 1 1 
1 1 1 1 1 1 
1 1 1 1 1 1 
1 1 1 1 1 1 
1 1 1 1 1 1 
1 1 1 1 1 1 
1 1 1 1 1 1 
1 1 1 1 1 1 
1 1 1 1 1 1 
1 1 1 1 1 1 
1 1 1 1 1 1 
1 1 1 1 1 1 
1 1 1 1 1 1 
1 1 1 1 1 1 
1 1 1 1 1 1 
1 1 1 1 1 1 
1 1 1 1 1 1 
1 1 1 1 1 1 
1 1 1 1 1 1 
1 1 1 1 1 1 
1 1 1 1 1 1 
1 1 1 1 1 1 
1 1 1 1 1 1 
1 1 1 1 1 1 
1 1 1 1 1 1 
1 1 1 1 1 1 
1 1 1 1 1 1 
1 1 1 1 1 1 
1 1 1 1 1 1 
1 1 1 1 1 1 
1 1 1 1 1 1 
1 1 1 1 1 1 
1 1 1 1 1 1 
1 1 1 1 1 1 
1 1 1 1 1 1 
1 1 1 1 1 1 
1 1 1 1 1 1 
1 1 1 1 1 1 
1 1 1 1 1 1 
1 1 1 1 1 1 
1 1 1 1 1 1 
1 1 1 1 1 1 
1 1 1 1 1 1 
1 1 1 1 1 1 
1 1 1 1 1 1 
1 1 1 1 1 1 
1 1 1 1 1 1 
1 1 1 1 1 1 
1 1 1 1 1 1 
1 1 1 1 1 1 
1 1 1 1 1 1 
1 1 1 1 1 1 
1 1 1 1 1 1 
1 1 1 1 1 1 
1 1 1 1 1 1 
1 1 1 1 1 1 
1 1 1 1 1 1 
1 1 1 1 1 1 
1 1 1 1 1 1 
1 1 1 1 1 1 
1 1 1 1 1 1 
1 1 1 1 1 1 
1 1 1 1 1 1 
1 1 1 1 1 1 
1 1 1 1 1 1 
1 1 1 1 1 1 
1 1 1 1 1 1 
1 1 1 1 1 1 
1 1 1 1 1 1 
1 1 1 1 1 1 
1 1 1 1 1 1 
1 1 1 1 1 1 
1 1 1 1 1 1 
1 1 1 1 1 1 
1 1 1 1 1 1 
1 1 1 1 1 1 
1 1 1 1 1 1 
1 1 1 1 1 1 
1 1 1 1 1 1 
1 1 1 1 1 1 
1 1 1 1 1 1 
1 1 1 1 1 1 
1 0.447059 0.337255 1 0.447059 0.337255 
1 0.447059 0.337255 1 0.447059 0.337255 
1 0.447059 0.337255 1 0.447059 0.337255 
1 0.447059 0.337255 1 0.447059 0.337255 
1 0.447059 0.337255 1 0.447059 0.337255 
1 0.447059 0.337255 1 0.447059 0.337255 
1 0.447059 0.337255 1 0.447059 0.337255 
1 0.447059 0.337255 1 0.447059 0.337255 
1 0.447059 0.337255 1 0.447059 0.337255 
1 0.447059 0.337255 1 0.447059 0.337255 
1 0.447059 0.337255 1 0.447059 0.337255 
1 0.447059 0.337255 1 0.447059 0.337255 
1 0.447059 0.337255 1 0.447059 0.337255 
1 0.447059 0.337255 1 0.447059 0.337255 
1 0.447059 0.337255 1 0.447059 0.337255 
1 0.447059 0.337255 1 0.447059 0.337255 
1 0.447059 0.337255 1 0.447059 0.337255 
1 0.447059 0.337255 1 0.447059 0.337255 
1 0.447059 0.337255 1 0.447059 0.337255 
1 0.447059 0.337255 1 0.447059 0.337255 
1 0.447059 0.337255 1 0.447059 0.337255 
1 0.447059 0.337255 1 0.447059 0.337255 
1 0.447059 0.337255 1 0.447059 0.337255 
1 0.447059 0.337255 1 0.447059 0.337255 
1 0.447059 0.337255 1 0.447059 0.337255 
1 0.447059 0.337255 1 0.447059 0.337255 
1 0.447059 0.337255 1 0.447059 0.337255 
1 0.447059 0.337255 1 0.447059 0.337255 
1 0.447059 0.337255 1 0.447059 0.337255 
1 0.447059 0.337255 1 0.447059 0.337255 
1 0.447059 0.337255 1 0.447059 0.337255 
1 0.447059 0.337255 1 0.447059 0.337255 
1 0.447059 0.337255 1 0.447059 0.337255 
1 0.447059 0.337255 1 0.447059 0.337255 
1 0.447059 0.337255 1 0.447059 0.337255 
1 0.447059 0.337255 1 0.447059 0.337255 
1 0.447059 0.337255 1 0.447059 0.337255 
1 0.447059 0.337255 1 0.447059 0.337255 
1 0.447059 0.337255 1 0.447059 0.337255 
1 0.447059 0.337255 1 0.447059 0.337255 
1 0.447059 0.337255 1 0.447059 0.337255 
1 0.447059 0.337255 1 0.447059 0.337255 
1 0.447059 0.337255 1 0.447059 0.337255 
1 0.447059 0.337255 1 0.447059 0.337255 
1 0.447059 0.337255 1 0.447059 0.337255 
1 0.447059 0.337255 1 0.447059 0.337255 
1 0.447059 0.337255 1 0.447059 0.337255 
1 0.447059 0.337255 1 0.447059 0.337255 
1 0.447059 0.337255 1 0.447059 0.337255 
1 0.447059 0.337255 1 0.447059 0.337255 
1 0.447059 0.337255 1 0.447059 0.337255 
1 0.447059 0.337255 1 0.447059 0.337255 
1 0.447059 0.337255 1 0.447059 0.337255 
1 0.447059 0.337255 1 0.447059 0.337255 
1 0.447059 0.337255 1 0.447059 0.337255 
1 0.447059 0.337255 1 0.447059 0.337255 
1 0.447059 0.337255 1 0.447059 0.337255 
1 0.447059 0.337255 1 0.447059 0.337255 
1 0.447059 0.337255 1 0.447059 0.337255 
1 0.447059 0.337255 1 0.447059 0.337255 
1 0.447059 0.337255 1 0.447059 0.337255 
1 0.447059 0.337255 1 0.447059 0.337255 
1 0.447059 0.337255 1 0.447059 0.337255 
1 0.447059 0.337255 1 0.447059 0.337255 
1 0.447059 0.337255 1 0.447059 0.337255 
1 0.447059 0.337255 1 0.447059 0.337255 
1 0.447059 0.337255 1 0.447059 0.337255 
1 0.447059 0.337255 1 0.447059 0.337255 
1 0.447059 0.337255 1 0.447059 0.337255 
1 0.447059 0.337255 1 0.447059 0.337255 
1 0.447059 0.337255 1 0.447059 0.337255 
1 0.447059 0.337255 1 0.447059 0.337255 
1 0.447059 0.337255 1 0.447059 0.337255 
1 0.447059 0.337255 1 0.447059 0.337255 
1 0.447059 0.337255 1 0.447059 0.337255 
1 0.447059 0.337255 1 0.447059 0.337255 
1 0.447059 0.337255 1 0.447059 0.337255 
1 0.447059 0.337255 1 0.447059 0.337255 
1 0.447059 0.337255 1 0.447059 0.337255 
1 0.447059 0.337255 1 0.447059 0.337255 
1 0.447059 0.337255 1 0.447059 0.337255 
1 0.447059 0.337255 1 0.447059 0.337255 
1 0.447059 0.337255 1 0.447059 0.337255 
1 0.447059 0.337255 1 0.447059 0.337255 
1 0.447059 0.337255 1 0.447059 0.337255 
1 0.447059 0.337255 1 0.447059 0.337255 
1 0.447059 0.337255 1 0.447059 0.337255 
1 0.447059 0.337255 1 0.447059 0.337255 
1 0.447059 0.337255 1 0.447059 0.337255 
1 0.447059 0.337255 1 0.447059 0.337255 
1 0.447059 0.337255 1 0.447059 0.337255 
1 0.447059 0.337255 1 0.447059 0.337255 
1 0.447059 0.337255 1 0.447059 0.337255 
1 0.447059 0.337255 1 0.447059 0.337255 
1 0.447059 0.337255 1 0.447059 0.337255 
1 0.447059 0.337255 1 0.447059 0.337255 
1 0.447059 0.337255 1 0.447059 0.337255 
1 0.447059 0.337255 1 0.447059 0.337255 
1 0.447059 0.337255 1 0.447059 0.337255 
1 0.447059 0.337255 1 0.447059 0.337255 
1 0.447059 0.337255 1 0.447059 0.337255 
1 0.447059 0.337255 1 0.447059 0.337255 
1 0.447059 0.337255 1 0.447059 0.337255 
1 0.447059 0.337255 1 0.447059 0.337255 
1 0.447059 0.337255 1 0.447059 0.337255 
1 0.447059 0.337255 1 0.447059 0.337255 
1 0.447059 0.337255 1 0.447059 0.337255 
1 0.447059 0.337255 1 0.447059 0.337255 
1 0.447059 0.337255 1 0.447059 0.337255 
1 0.447059 0.337255 1 0.447059 0.337255 
1 0.447059 0.337255 1 0.447059 0.337255 
1 0.447059 0.337255 1 0.447059 0.337255 
1 0.447059 0.337255 1 0.447059 0.337255 
1 0.447059 0.337255 1 0.447059 0.337255 
1 0.447059 0.337255 1 0.447059 0.337255 
1 0.447059 0.337255 1 0.447059 0.337255 
1 0.447059 0.337255 1 0.447059 0.337255 
1 0.447059 0.337255 1 0.447059 0.337255 
1 0.447059 0.337255 1 0.447059 0.337255 
1 0.447059 0.337255 1 0.447059 0.337255 
1 0.447059 0.337255 1 0.447059 0.337255 
1 0.447059 0.337255 1 0.447059 0.337255 
1 0.447059 0.337255 1 0.447059 0.337255 
1 0.447059 0.337255 1 0.447059 0.337255 
1 0.447059 0.337255 1 0.447059 0.337255 
1 0.447059 0.337255 1 0.447059 0.337255 
1 0.447059 0.337255 1 0.447059 0.337255 
1 0.447059 0.337255 1 0.447059 0.337255 
1 0.447059 0.337255 1 0.447059 0.337255 
1 0.447059 0.337255 1 0.447059 0.337255 
1 0.447059 0.337255 1 0.447059 0.337255 
1 0.447059 0.337255 1 0.447059 0.337255 
1 0.447059 0.337255 1 0.447059 0.337255 
1 0.447059 0.337255 1 0.447059 0.337255 
1 0.447059 0.337255 1 0.447059 0.337255 
1 0.447059 0.337255 1 0.447059 0.337255 
1 0.447059 0.337255 1 0.447059 0.337255 
1 0.447059 0.337255 1 0.447059 0.337255 
1 0.447059 0.337255 1 0.447059 0.337255 
1 0.447059 0.337255 1 0.447059 0.337255 
1 0.447059 0.337255 1 0.447059 0.337255 
1 0.447059 0.337255 1 0.447059 0.337255 
1 0.447059 0.337255 1 0.447059 0.337255 
1 0.447059 0.337255 1 0.447059 0.337255 
1 0.447059 0.337255 1 0.447059 0.337255 
1 0.447059 0.337255 1 0.447059 0.337255 
1 0.447059 0.337255 1 0.447059 0.337255 
1 0.447059 0.337255 1 0.447059 0.337255 
1 0.447059 0.337255 1 0.447059 0.337255 
1 0.447059 0.337255 1 0.447059 0.337255 
1 0.447059 0.337255 1 0.447059 0.337255 
1 0.447059 0.337255 1 0.447059 0.337255 
1 0.447059 0.337255 1 0.447059 0.337255 
1 0.447059 0.337255 1 0.447059 0.337255 
1 0.447059 0.337255 1 0.447059 0.337255 
1 0.447059 0.337255 1 0.447059 0.337255 
1 0.447059 0.337255 1 0.447059 0.337255 
1 0.447059 0.337255 1 0.447059 0.337255 
1 0.447059 0.337255 1 0.447059 0.337255 
1 0.447059 0.337255 1 0.447059 0.337255 
1 0.447059 0.337255 1 0.447059 0.337255 
1 0.447059 0.337255 1 0.447059 0.337255 
1 0.447059 0.337255 1 0.447059 0.337255 
1 0.447059 0.337255 1 0.447059 0.337255 
1 0.447059 0.337255 1 0.447059 0.337255 
1 0.447059 0.337255 1 0.447059 0.337255 
1 0.447059 0.337255 1 0.447059 0.337255 
1 0.447059 0.337255 1 0.447059 0.337255 
1 0.447059 0.337255 1 0.447059 0.337255 
1 0.447059 0.337255 1 0.447059 0.337255 
1 0.447059 0.337255 1 0.447059 0.337255 
1 0.447059 0.337255 1 0.447059 0.337255 
1 0.447059 0.337255 1 0.447059 0.337255 
1 0.447059 0.337255 1 0.447059 0.337255 
1 0.447059 0.337255 1 0.447059 0.337255 
1 0.447059 0.337255 1 0.447059 0.337255 
1 0.447059 0.337255 1 0.447059 0.337255 
1 0.447059 0.337255 1 0.447059 0.337255 
1 0.447059 0.337255 1 0.447059 0.337255 
1 0.447059 0.337255 1 0.447059 0.337255 
1 0.447059 0.337255 1 0.447059 0.337255 
1 0.447059 0.337255 1 0.447059 0.337255 
1 0.447059 0.337255 1 0.447059 0.337255 
1 0.447059 0.337255 1 0.447059 0.337255 
1 0.447059 0.337255 1 0.447059 0.337255 
1 0.447059 0.337255 1 0.447059 0.337255 
1 0.447059 0.337255 1 0.447059 0.337255 
1 0.447059 0.337255 1 0.447059 0.337255 
1 0.447059 0.337255 1 0.447059 0.337255 
1 0.447059 0.337255 1 0.447059 0.337255 
1 0.447059 0.337255 1 0.447059 0.337255 
1 0.447059 0.337255 1 0.447059 0.337255 
1 0.447059 0.337255 1 0.447059 0.337255 
1 0.447059 0.337255 1 0.447059 0.337255 
1 0.447059 0.337255 1 0.447059 0.337255 
1 0.447059 0.337255 1 0.447059 0.337255 
1 0.447059 0.337255 1 0.447059 0.337255 
1 0.447059 0.337255 1 0.447059 0.337255 
1 0.447059 0.337255 1 0.447059 0.337255 
1 0.447059 0.337255 1 0.447059 0.337255 
1 0.447059 0.337255 1 0.447059 0.337255 
1 0.447059 0.337255 1 0.447059 0.337255 
1 0.447059 0.337255 1 0.447059 0.337255 
1 0.447059 0.337255 1 0.447059 0.337255 
1 0.447059 0.337255 1 0.447059 0.337255 
1 0.447059 0.337255 1 0.447059 0.337255 
1 0.447059 0.337255 1 0.447059 0.337255 
1 0.447059 0.337255 1 0.447059 0.337255 
1 0.447059 0.337255 1 0.447059 0.337255 
1 0.447059 0.337255 1 0.447059 0.337255 
1 0.447059 0.337255 1 0.447059 0.337255 
1 0.447059 0.337255 1 0.447059 0.337255 
1 0.447059 0.337255 1 0.447059 0.337255 
1 0.447059 0.337255 1 0.447059 0.337255 
1 0.447059 0.337255 1 0.447059 0.337255 
1 0.447059 0.337255 1 0.447059 0.337255 
1 0.447059 0.337255 1 0.447059 0.337255 
1 0.447059 0.337255 1 0.447059 0.337255 
1 0.447059 0.337255 1 0.447059 0.337255 
1 0.447059 0.337255 1 0.447059 0.337255 
1 0.447059 0.337255 1 0.447059 0.337255 
1 0.447059 0.337255 1 0.447059 0.337255 
1 0.447059 0.337255 1 0.447059 0.337255 
1 0.447059 0.337255 1 0.447059 0.337255 
1 0.447059 0.337255 1 0.447059 0.337255 
1 0.447059 0.337255 1 0.447059 0.337255 
1 0.447059 0.337255 1 0.447059 0.337255 
1 0.447059 0.337255 1 0.447059 0.337255 
1 0.447059 0.337255 1 0.447059 0.337255 
1 0.447059 0.337255 1 0.447059 0.337255 
1 0.447059 0.337255 1 0.447059 0.337255 
1 0.447059 0.337255 1 0.447059 0.337255 
1 0.447059 0.337255 1 0.447059 0.337255 
1 0.447059 0.337255 1 0.447059 0.337255 
1 0.447059 0.337255 1 0.447059 0.337255 
1 0.447059 0.337255 1 0.447059 0.337255 
1 0.447059 0.337255 1 0.447059 0.337255 
1 0.447059 0.337255 1 0.447059 0.337255 
1 0.447059 0.337255 1 0.447059 0.337255 
1 0.447059 0.337255 1 0.447059 0.337255 
1 0.447059 0.337255 1 0.447059 0.337255 
1 0.447059 0.337255 1 0.447059 0.337255 
1 0.447059 0.337255 1 0.447059 0.337255 
1 0.447059 0.337255 1 0.447059 0.337255 
1 0.447059 0.337255 1 0.447059 0.337255 
1 0.447059 0.337255 1 0.447059 0.337255 
1 0.447059 0.337255 1 0.447059 0.337255 
1 0.447059 0.337255 1 0.447059 0.337255 
1 0.447059 0.337255 1 0.447059 0.337255 
1 0.447059 0.337255 1 0.447059 0.337255 
1 0.447059 0.337255 1 0.447059 0.337255 
1 0.447059 0.337255 1 0.447059 0.337255 
1 0.447059 0.337255 1 0.447059 0.337255 
1 0.447059 0.337255 1 0.447059 0.337255 
1 0.447059 0.337255 1 0.447059 0.337255 
1 0.447059 0.337255 1 0.447059 0.337255 
1 0.447059 0.337255 1 0.447059 0.337255 
1 0.447059 0.337255 1 0.447059 0.337255 
1 0.447059 0.337255 1 0.447059 0.337255 
1 0.447059 0.337255 1 0.447059 0.337255 
1 0.447059 0.337255 1 0.447059 0.337255 
1 0.447059 0.337255 1 0.447059 0.337255 
1 0.447059 0.337255 1 0.447059 0.337255 
1 0.447059 0.337255 1 0.447059 0.337255 
1 0.447059 0.337255 1 0.447059 0.337255 
1 0.447059 0.337255 1 0.447059 0.337255 
1 0.447059 0.337255 1 0.447059 0.337255 
1 0.447059 0.337255 1 0.447059 0.337255 
1 0.447059 0.337255 1 0.447059 0.337255 
1 0.447059 0.337255 1 0.447059 0.337255 
1 0.447059 0.337255 1 0.447059 0.337255 
1 0.447059 0.337255 1 0.447059 0.337255 
1 0.447059 0.337255 1 0.447059 0.337255 
1 0.447059 0.337255 1 0.447059 0.337255 
1 0.447059 0.337255 1 0.447059 0.337255 
1 0.447059 0.337255 1 0.447059 0.337255 
1 0.447059 0.337255 1 0.447059 0.337255 
1 0.447059 0.337255 1 0.447059 0.337255 
1 0.447059 0.337255 1 0.447059 0.337255 
1 0.447059 0.337255 1 0.447059 0.337255 
1 0.447059 0.337255 1 0.447059 0.337255 
1 0.447059 0.337255 1 0.447059 0.337255 
1 0.447059 0.337255 1 0.447059 0.337255 
1 0.447059 0.337255 1 0.447059 0.337255 
1 0.447059 0.337255 1 0.447059 0.337255 
1 0.447059 0.337255 1 0.447059 0.337255 
1 0.447059 0.337255 1 0.447059 0.337255 
1 0.447059 0.337255 1 0.447059 0.337255 
1 0.447059 0.337255 1 0.447059 0.337255 
1 0.447059 0.337255 1 0.447059 0.337255 
1 0.447059 0.337255 1 0.447059 0.337255 
1 0.447059 0.337255 1 0.447059 0.337255 
1 0.447059 0.337255 1 0.447059 0.337255 
1 0.447059 0.337255 1 0.447059 0.337255 
1 0.447059 0.337255 1 0.447059 0.337255 
1 0.447059 0.337255 1 0.447059 0.337255 
1 0.447059 0.337255 1 0.447059 0.337255 
1 0.447059 0.337255 1 0.447059 0.337255 
1 0.447059 0.337255 1 0.447059 0.337255 
1 0.447059 0.337255 1 0.447059 0.337255 
1 0.447059 0.337255 1 0.447059 0.337255 
1 0.447059 0.337255 1 0.447059 0.337255 
1 0.447059 0.337255 1 0.447059 0.337255 
1 0.447059 0.337255 1 0.447059 0.337255 
1 0.447059 0.337255 1 0.447059 0.337255 
1 0.447059 0.337255 1 0.447059 0.337255 
1 0.447059 0.337255 1 0.447059 0.337255 
1 0.447059 0.337255 1 0.447059 0.337255 
1 0.447059 0.337255 1 0.447059 0.337255 
1 0.447059 0.337255 1 0.447059 0.337255 
1 0.447059 0.337255 1 0.447059 0.337255 
1 0.447059 0.337255 1 0.447059 0.337255 
1 0.447059 0.337255 1 0.447059 0.337255 
1 0.447059 0.337255 1 0.447059 0.337255 
1 0.447059 0.337255 1 0.447059 0.337255 
1 0.447059 0.337255 1 0.447059 0.337255 
1 0.447059 0.337255 1 0.447059 0.337255 
1 0.447059 0.337255 1 0.447059 0.337255 
1 0.447059 0.337255 1 0.447059 0.337255 
1 0.447059 0.337255 1 0.447059 0.337255 
1 0.447059 0.337255 1 0.447059 0.337255 
1 0.447059 0.337255 1 0.447059 0.337255 
1 0.447059 0.337255 1 0.447059 0.337255 
1 0.447059 0.337255 1 0.447059 0.337255 
1 0.447059 0.337255 1 0.447059 0.337255 
1 0.447059 0.337255 1 0.447059 0.337255 
1 0.447059 0.337255 1 0.447059 0.337255 
1 0.447059 0.337255 1 0.447059 0.337255 
1 0.447059 0.337255 1 0.447059 0.337255 
1 0.447059 0.337255 1 0.447059 0.337255 
1 0.447059 0.337255 1 0.447059 0.337255 
1 0.447059 0.337255 1 0.447059 0.337255 
1 0.447059 0.337255 1 0.447059 0.337255 
1 0.447059 0.337255 1 0.447059 0.337255 
1 0.447059 0.337255 1 0.447059 0.337255 
1 0.447059 0.337255 1 0.447059 0.337255 
1 0.447059 0.337255 1 0.447059 0.337255 
1 0.447059 0.337255 1 0.447059 0.337255 
1 0.447059 0.337255 1 0.447059 0.337255 
1 0.447059 0.337255 1 0.447059 0.337255 
1 0.447059 0.337255 1 0.447059 0.337255 
1 0.447059 0.337255 1 0.447059 0.337255 
1 0.447059 0.337255 1 0.447059 0.337255 
1 0.447059 0.337255 1 0.447059 0.337255 
1 0.447059 0.337255 1 0.447059 0.337255 
1 0.447059 0.337255 1 0.447059 0.337255 
1 0.447059 0.337255 1 0.447059 0.337255 
1 0.447059 0.337255 1 0.447059 0.337255 
1 0.447059 0.337255 1 0.447059 0.337255 
1 0.447059 0.337255 1 0.447059 0.337255 
1 0.447059 0.337255 1 0.447059 0.337255 
1 0.447059 0.337255 1 0.447059 0.337255 
1 0.447059 0.337255 1 0.447059 0.337255 
1 0.447059 0.337255 1 0.447059 0.337255 
1 0.447059 0.337255 1 0.447059 0.337255 
1 0.447059 0.337255 1 0.447059 0.337255 
1 0.447059 0.337255 1 0.447059 0.337255 
1 0.447059 0.337255 1 0.447059 0.337255 
1 0.447059 0.337255 1 0.447059 0.337255 
1 0.447059 0.337255 1 0.447059 0.337255 
1 0.447059 0.337255 1 0.447059 0.337255 
1 0.447059 0.337255 1 0.447059 0.337255 
1 0.447059 0.337255 1 0.447059 0.337255 
1 0.447059 0.337255 1 0.447059 0.337255 
1 0.447059 0.337255 1 0.447059 0.337255 
1 0.447059 0.337255 1 0.447059 0.337255 
1 0.447059 0.337255 1 0.447059 0.337255 
1 0.447059 0.337255 1 0.447059 0.337255 
1 0.447059 0.337255 1 0.447059 0.337255 
1 0.447059 0.337255 1 0.447059 0.337255 
1 0.447059 0.337255 1 0.447059 0.337255 
1 0.447059 0.337255 1 0.447059 0.337255 
1 0.447059 0.337255 1 0.447059 0.337255 
1 0.447059 0.337255 1 0.447059 0.337255 
1 0.447059 0.337255 1 0.447059 0.337255 
1 0.447059 0.337255 1 0.447059 0.337255 
1 0.447059 0.337255 1 0.447059 0.337255 
1 0.447059 0.337255 1 0.447059 0.337255 
1 0.447059 0.337255 1 0.447059 0.337255 
1 0.447059 0.337255 1 0.447059 0.337255 
1 0.447059 0.337255 1 0.447059 0.337255 
1 0.447059 0.337255 1 0.447059 0.337255 
1 0.447059 0.337255 1 0.447059 0.337255 
1 0.447059 0.337255 1 0.447059 0.337255 
1 1 1 1 1 1 
1 1 1 1 1 1 
1 1 1 1 1 1 
1 1 1 1 1 1 
1 1 1 1 1 1 
1 1 1 1 1 1 
1 1 1 1 1 1 
1 1 1 1 1 1 
1 1 1 1 1 1 
1 1 1 1 1 1 
1 1 1 1 1 1 
1 1 1 1 1 1 
1 1 1 1 1 1 
1 1 1 1 1 1 
1 1 1 1 1 1 
1 1 1 1 1 1 
1 1 1 1 1 1 
1 1 1 1 1 1 
1 1 1 1 1 1 
1 1 1 1 1 1 
1 1 1 1 1 1 
1 1 1 1 1 1 
1 1 1 1 1 1 
1 1 1 1 1 1 
1 1 1 1 1 1 
1 1 1 1 1 1 
1 1 1 1 1 1 
1 1 1 1 1 1 
1 1 1 1 1 1 
1 1 1 1 1 1 
1 1 1 1 1 1 
1 1 1 1 1 1 
1 1 1 1 1 1 
1 1 1 1 1 1 
1 1 1 1 1 1 
1 1 1 1 1 1 
1 1 1 1 1 1 
1 1 1 1 1 1 
1 1 1 1 1 1 
1 1 1 1 1 1 
1 1 1 1 1 1 
1 1 1 1 1 1 
1 1 1 1 1 1 
1 1 1 1 1 1 
1 1 1 1 1 1 
1 1 1 1 1 1 
1 1 1 0.309804 0.619608 0.411765 
0.309804 0.619608 0.411765 0.309804 0.619608 0.411765 
0.309804 0.619608 0.411765 0.309804 0.619608 0.411765 
0.309804 0.619608 0.411765 0.309804 0.619608 0.411765 
0.309804 0.619608 0.411765 0.309804 0.619608 0.411765 
0.309804 0.619608 0.411765 0.309804 0.619608 0.411765 
0.309804 0.619608 0.411765 0.309804 0.619608 0.411765 
0.309804 0.619608 0.411765 0.309804 0.619608 0.411765 
0.309804 0.619608 0.411765 0.309804 0.619608 0.411765 
0.309804 0.619608 0.411765 0.309804 0.619608 0.411765 
0.309804 0.619608 0.411765 0.309804 0.619608 0.411765 
0.309804 0.619608 0.411765 0.309804 0.619608 0.411765 
0.309804 0.619608 0.411765 0.309804 0.619608 0.411765 
0.309804 0.619608 0.411765 0.309804 0.619608 0.411765 
0.309804 0.619608 0.411765 0.309804 0.619608 0.411765 
0.309804 0.619608 0.411765 0.309804 0.619608 0.411765 
0.309804 0.619608 0.411765 0.309804 0.619608 0.411765 
0.309804 0.619608 0.411765 0.309804 0.619608 0.411765 
0.309804 0.619608 0.411765 0.309804 0.619608 0.411765 
0.309804 0.619608 0.411765 0.309804 0.619608 0.411765 
0.309804 0.619608 0.411765 0.309804 0.619608 0.411765 
0.309804 0.619608 0.411765 0.309804 0.619608 0.411765 
0.309804 0.619608 0.411765 0.309804 0.619608 0.411765 
0.309804 0.619608 0.411765 0.309804 0.619608 0.411765 
0.309804 0.619608 0.411765 0.309804 0.619608 0.411765 
0.309804 0.619608 0.411765 0.309804 0.619608 0.411765 
0.309804 0.619608 0.411765 0.309804 0.619608 0.411765 
0.309804 0.619608 0.411765 0.309804 0.619608 0.411765 
0.309804 0.619608 0.411765 0.309804 0.619608 0.411765 
0.309804 0.619608 0.411765 0.309804 0.619608 0.411765 
0.309804 0.619608 0.411765 0.309804 0.619608 0.411765 
0.309804 0.619608 0.411765 0.309804 0.619608 0.411765 
0.309804 0.619608 0.411765 0.309804 0.619608 0.411765 
0.309804 0.619608 0.411765 0.309804 0.619608 0.411765 
0.309804 0.619608 0.411765 0.309804 0.619608 0.411765 
0.309804 0.619608 0.411765 0.309804 0.619608 0.411765 
0.309804 0.619608 0.411765 0.309804 0.619608 0.411765 
0.309804 0.619608 0.411765 0.309804 0.619608 0.411765 
0.309804 0.619608 0.411765 0.309804 0.619608 0.411765 
0.309804 0.619608 0.411765 0.309804 0.619608 0.411765 
0.309804 0.619608 0.411765 0.309804 0.619608 0.411765 