# vtk DataFile Version 3.0
Gocad TSurf to VTK
ASCII
DATASET POLYDATA
POINTS 100 float
21599312.734 4578631.617 -261.092
21599693.328 4578388.734 -478.845
21599663.547 4578372.039 -477.028
21599272.391 4578326.352 -379.156
21599696.234 4578391.055 -478.728
21599864.922 4578540.773 -452.819
21599695.328 4578390.219 -478.813
21599933.406 4578606.953 -450.727
21599969.086 4578641.445 -449.632
21599994.648 4578680.828 -443.948
21599999.344 4578670.953 -449.103
21599679.773 4578810.906 -257.954
21598736.773 4578582.258 259.209
21600061.039 4578925.094 -300.363
21600150.000 4579010.000 12.500
21600066.688 4578727.547 -433.758
21600188.719 4578827.844 -402.381
21600011.203 4578681.953 -448.016
21600256.383 4578868.297 -361.311
21600312.188 4578901.617 -327.482
21600313.602 4578902.109 -326.987
21600475.227 4578993.898 -233.881
21600525.000 4579055.000 -171.250
21600478.094 4578995.047 -232.728
21600600.000 4579242.500 237.500
21600566.133 4579233.398 241.522
21601044.906 4579243.234 120.823
21600721.141 4579047.781 -117.978
21600785.313 4579062.094 -88.415
21600618.586 4579038.570 -190.518
21600569.977 4579027.984 -213.409
21600498.094 4579001.180 -226.608
21600831.719 4579072.375 -67.092
21601082.953 4579128.164 48.464
21600412.500 4579185.070 242.193
21600196.758 4579126.898 267.341
21600144.570 4579112.828 273.425
21599775.000 4578965.000 196.250
21599856.125 4579035.055 307.049
21599795.016 4579015.047 305.351
21599565.367 4578939.844 298.970
21599163.336 4578754.625 278.349
21598783.852 4578607.063 263.696
21598758.016 4578593.852 262.140
21598661.820 4578528.352 246.816
21598761.852 4578342.039 -172.316
21598579.734 4578480.914 235.068
21598440.820 4578415.430 241.458
21598527.188 4578118.516 -66.003
21598869.242 4577919.758 -234.986
21598405.766 4578360.141 241.840
21598365.000 4578248.063 240.771
21598342.781 4578189.758 241.690
21598405.625 4577902.367 -12.117
21598318.219 4578128.664 242.719
21598258.609 4578013.484 245.338
21598195.234 4577869.859 248.044
21598202.820 4577811.750 247.440
21598409.211 4577693.492 14.466
21598187.563 4577691.625 247.773
21598304.891 4577595.922 119.465
21598883.883 4577400.633 38.060
21598185.734 4577651.672 247.719
21598171.313 4577542.500 248.050
21598464.445 4577425.914 166.692
21598276.828 4577473.023 242.397
21598341.328 4577398.570 238.823
21598425.242 4577347.852 234.345
21598584.789 4577332.570 226.131
21598884.469 4577282.391 227.944
21598946.961 4577266.461 228.338
21599466.992 4577311.227 231.099
21599635.656 4577408.281 18.370
21599125.953 4577558.555 -156.833
21599476.938 4577311.188 231.155
21599684.422 4577329.945 232.254
21600000.000 4577360.000 230.000
21600265.992 4577325.086 194.135
21600258.813 4577326.047 186.252
21600238.898 4577328.703 164.420
21600203.664 4577343.555 140.870
21600188.078 4577368.203 103.852
21600098.195 4577458.602 -33.495
21599991.047 4577566.797 -197.864
21599941.344 4577620.234 -270.576
21599872.172 4577693.336 -370.044
21599811.516 4577711.117 -394.195
21599861.789 4577704.500 -385.241
21599294.867 4578116.031 -416.448
21599590.250 4578052.594 -456.859
21599589.102 4578054.102 -457.101
21599737.383 4577943.070 -452.351
21599735.125 4577946.734 -453.049
21599825.859 4577764.766 -414.092
21599844.305 4577726.484 -407.338
21599736.172 4577945.977 -453.021
21599529.688 4578137.820 -471.406
21599475.336 4578253.531 -440.474
21599476.328 4578254.594 -440.561
21599506.695 4578273.063 -445.308

POLYGONS 118 472
3 1 0 4
3 0 8 7
3 39 38 37
3 86 88 89
3 46 44 45
3 8 9 10
3 59 57 58
3 74 71 72
3 67 66 64
3 14 25 24
3 72 83 82
3 3 88 45
3 44 0 45
3 13 21 20
3 66 65 64
3 73 72 61
3 48 45 49
3 63 62 60
3 71 70 61
3 54 52 53
3 12 43 11
3 18 13 19
3 91 86 89
3 59 58 60
3 77 72 78
3 70 69 61
3 47 46 45
3 86 87 85
3 22 26 27
3 50 47 48
3 79 72 80
3 53 49 58
3 22 29 30
3 88 90 89
3 72 86 85
3 40 39 37
3 0 3 45
3 49 73 58
3 69 68 64
3 52 51 48
3 0 7 5
3 88 97 96
3 57 53 58
3 22 23 21
3 0 9 8
3 35 34 14
3 61 69 64
3 88 3 97
3 64 60 61
3 51 50 48
3 32 26 33
3 9 13 15
3 26 28 27
3 88 86 49
3 78 72 79
3 11 9 0
3 13 22 21
3 56 55 53
3 72 82 81
3 19 13 20
3 47 45 48
3 71 61 72
3 74 72 75
3 31 22 30
3 99 3 2
3 86 91 93
3 53 48 49
3 36 35 14
3 60 58 61
3 3 99 98
3 17 9 15
3 29 22 27
3 94 86 93
3 9 11 13
3 63 60 64
3 84 72 85
3 4 0 5
3 13 16 15
3 28 26 32
3 91 89 92
3 73 86 72
3 86 94 87
3 77 76 72
3 44 12 0
3 23 22 31
3 52 48 53
3 68 67 64
3 41 40 37
3 36 14 37
3 11 14 13
3 90 88 96
3 37 14 11
3 55 54 53
3 0 12 11
3 42 41 11
3 58 73 61
3 45 88 49
3 38 36 37
3 83 72 84
3 16 13 18
3 57 56 53
3 34 25 14
3 6 1 4
3 43 42 11
3 26 22 24
3 41 37 11
3 91 92 95
3 65 63 64
3 24 22 14
3 0 1 2
3 97 3 98
3 14 22 13
3 10 9 17
3 73 49 86
3 62 59 60
3 72 81 80
3 3 0 2
3 72 76 75

POINT_DATA 100
COLOR_SCALARS GocadColor 4
0.129412 0.541176 0.129412 1
0.129412 0.541176 0.129412 1
0.129412 0.541176 0.129412 1
0.129412 0.541176 0.129412 1
0.129412 0.541176 0.129412 1
0.129412 0.541176 0.129412 1
0.129412 0.541176 0.129412 1
0.129412 0.541176 0.129412 1
0.129412 0.541176 0.129412 1
0.129412 0.541176 0.129412 1
0.129412 0.541176 0.129412 1
0.129412 0.541176 0.129412 1
0.129412 0.541176 0.129412 1
0.129412 0.541176 0.129412 1
0.129412 0.541176 0.129412 1
0.129412 0.541176 0.129412 1
0.129412 0.541176 0.129412 1
0.129412 0.541176 0.129412 1
0.129412 0.541176 0.129412 1
0.129412 0.541176 0.129412 1
0.129412 0.541176 0.129412 1
0.129412 0.541176 0.129412 1
0.129412 0.541176 0.129412 1
0.129412 0.541176 0.129412 1
0.129412 0.541176 0.129412 1
0.129412 0.541176 0.129412 1
0.129412 0.541176 0.129412 1
0.129412 0.541176 0.129412 1
0.129412 0.541176 0.129412 1
0.129412 0.541176 0.129412 1
0.129412 0.541176 0.129412 1
0.129412 0.541176 0.129412 1
0.129412 0.541176 0.129412 1
0.129412 0.541176 0.129412 1
0.129412 0.541176 0.129412 1
0.129412 0.541176 0.129412 1
0.129412 0.541176 0.129412 1
0.129412 0.541176 0.129412 1
0.129412 0.541176 0.129412 1
0.129412 0.541176 0.129412 1
0.129412 0.541176 0.129412 1
0.129412 0.541176 0.129412 1
0.129412 0.541176 0.129412 1
0.129412 0.541176 0.129412 1
0.129412 0.541176 0.129412 1
0.129412 0.541176 0.129412 1
0.129412 0.541176 0.129412 1
0.129412 0.541176 0.129412 1
0.129412 0.541176 0.129412 1
0.129412 0.541176 0.129412 1
0.129412 0.541176 0.129412 1
0.129412 0.541176 0.129412 1
0.129412 0.541176 0.129412 1
0.129412 0.541176 0.129412 1
0.129412 0.541176 0.129412 1
0.129412 0.541176 0.129412 1
0.129412 0.541176 0.129412 1
0.129412 0.541176 0.129412 1
0.129412 0.541176 0.129412 1
0.129412 0.541176 0.129412 1
0.129412 0.541176 0.129412 1
0.129412 0.541176 0.129412 1
0.129412 0.541176 0.129412 1
0.129412 0.541176 0.129412 1
0.129412 0.541176 0.129412 1
0.129412 0.541176 0.129412 1
0.129412 0.541176 0.129412 1
0.129412 0.541176 0.129412 1
0.129412 0.541176 0.129412 1
0.129412 0.541176 0.129412 1
0.129412 0.541176 0.129412 1
0.129412 0.541176 0.129412 1
0.129412 0.541176 0.129412 1
0.129412 0.541176 0.129412 1
0.129412 0.541176 0.129412 1
0.129412 0.541176 0.129412 1
0.129412 0.541176 0.129412 1
0.129412 0.541176 0.129412 1
0.129412 0.541176 0.129412 1
0.129412 0.541176 0.129412 1
0.129412 0.541176 0.129412 1
0.129412 0.541176 0.129412 1
0.129412 0.541176 0.129412 1
0.129412 0.541176 0.129412 1
0.129412 0.541176 0.129412 1
0.129412 0.541176 0.129412 1
0.129412 0.541176 0.129412 1
0.129412 0.541176 0.129412 1
0.129412 0.541176 0.129412 1
0.129412 0.541176 0.129412 1
0.129412 0.541176 0.129412 1
0.129412 0.541176 0.129412 1
0.129412 0.541176 0.129412 1
0.129412 0.541176 0.129412 1
0.129412 0.541176 0.129412 1
0.129412 0.541176 0.129412 1
0.129412 0.541176 0.129412 1
0.129412 0.541176 0.129412 1
0.129412 0.541176 0.129412 1
0.129412 0.541176 0.129412 1

