# vtk DataFile Version 3.0
Gocad TSurf to VTK
ASCII
DATASET POLYDATA
POINTS 341 float
21594191.172 4577078.820 -949.252
21593450.648 4577114.859 -274.371
21593141.398 4577678.156 48.440
21593046.547 4577586.875 127.714
21593177.578 4577680.797 0.908
21593914.344 4576558.266 -501.285
21594859.305 4575563.750 -803.141
21593483.719 4576187.180 212.405
21593429.281 4576308.852 221.101
21593811.078 4575664.563 198.468
21594371.961 4574885.461 64.067
21595599.992 4573968.602 -712.683
21595770.133 4574583.266 -1235.699
21595471.102 4573617.156 -6.234
21596454.859 4573722.023 -741.890
21596460.633 4573698.930 -703.384
21596666.258 4574410.125 -1265.023
21596672.648 4574435.297 -1286.333
21596679.234 4574472.508 -1322.532
21596291.633 4574994.430 -1729.654
21595437.422 4575803.563 -1558.104
21596681.609 4574488.156 -1338.377
21596763.289 4575024.828 -1881.854
21596853.883 4575225.242 -1986.967
21596896.289 4575275.582 -2019.218
21596771.016 4575732.313 -2160.053
21595863.055 4576433.125 -1835.154
21597038.688 4575444.637 -2127.518
21597190.766 4575643.492 -2275.418
21597349.109 4575939.352 -2585.699
21597236.313 4576039.602 -2616.565
21596054.648 4577073.109 -2134.549
21597452.484 4576064.070 -2667.830
21597455.891 4576067.617 -2670.249
21597796.992 4576380.406 -2836.142
21597686.359 4576606.250 -2882.611
21596504.992 4577550.258 -2533.868
21597874.766 4576451.719 -2873.966
21597962.852 4576527.648 -2907.993
21598121.383 4576829.984 -3011.805
21598164.563 4576929.406 -3060.021
21598221.328 4577060.102 -3123.406
21598234.234 4577089.828 -3137.823
21598053.781 4577220.758 -3186.790
21598280.219 4577195.695 -3189.167
21598322.898 4577265.234 -3203.263
21598412.008 4577410.406 -3232.689
21598294.211 4577688.750 -3229.066
21598190.313 4577862.375 -3223.451
21598494.625 4577532.977 -3245.929
21596670.195 4578642.211 -2495.148
21598008.531 4578245.406 -3124.652
21595694.148 4578318.758 -2160.849
21596841.047 4579168.313 -2443.209
21595221.000 4576840.203 -1643.791
21594768.531 4578629.258 -1632.509
21594696.289 4578522.383 -1593.679
21594771.813 4578632.672 -1635.064
21594693.914 4578924.297 -1630.649
21594824.945 4578687.930 -1676.414
21595564.383 4579795.102 -2007.384
21594792.273 4579998.195 -1809.161
21596261.883 4580329.078 -2114.284
21597527.039 4580137.008 -2366.908
21595437.047 4580868.094 -1842.047
21595679.313 4581421.289 -1581.796
21596250.000 4581305.000 -1757.500
21595021.203 4581138.766 -1731.609
21595300.000 4581365.000 -1638.750
21594650.000 4580810.000 -1780.000
21594400.000 4581020.000 -1630.000
21595000.000 4581480.000 -1555.000
21594125.000 4580425.000 -1605.000
21594428.984 4580278.078 -1743.208
21593774.141 4580769.891 -1412.810
21594242.797 4581461.492 -1627.463
21594285.898 4579948.594 -1629.787
21593837.320 4579082.016 -1334.336
21594181.656 4578543.109 -1390.851
21593283.328 4579773.977 -1064.977
21593394.047 4579348.328 -1027.709
21593123.883 4580704.164 -1216.680
21592851.297 4580371.297 -955.120
21593919.289 4581262.688 -1552.033
21593516.125 4581409.180 -1443.780
21593892.516 4581820.953 -1622.187
21594500.000 4581625.000 -1630.000
21594200.000 4581910.000 -1630.000
21594900.000 4581915.000 -1421.250
21594550.000 4582185.000 -1410.000
21595100.000 4581630.000 -1440.000
21595770.375 4582160.984 -966.645
21595475.000 4582360.000 -848.750
21596100.000 4581570.000 -1475.000
21596250.000 4581730.000 -1365.000
21596175.000 4582042.500 -900.000
21596475.000 4581545.000 -1592.500
21596518.359 4582024.453 -845.173
21596356.953 4581165.148 -1895.890
21596850.000 4581232.500 -1816.250
21597274.453 4580861.656 -2151.922
21597900.953 4580837.172 -2009.258
21597344.742 4581092.641 -1885.555
21597303.992 4581257.617 -1664.905
21597726.820 4581344.438 -1390.543
21597600.000 4581600.000 -1022.500
21598504.914 4581234.516 -1208.123
21598744.742 4580987.633 -1785.936
21598085.453 4581435.766 -1074.950
21598125.000 4581795.000 -450.000
21597575.000 4581845.000 -730.000
21598275.000 4581907.500 -133.750
21598150.000 4582045.000 42.500
21598979.297 4581551.078 -760.298
21599168.922 4581765.172 -256.264
21599085.609 4581158.641 -1206.550
21600144.031 4581638.547 -881.825
21599607.258 4580993.883 -1522.031
21599411.031 4580844.828 -1984.832
21598339.617 4580545.406 -2279.168
21600279.305 4581036.117 -1717.873
21601641.617 4581550.438 -1219.253
21600241.523 4580892.008 -2219.581
21599066.227 4580616.578 -2336.908
21602425.680 4581213.500 -1983.586
21602569.781 4581260.391 -1875.779
21601961.875 4581009.172 -2249.882
21601225.313 4580718.234 -2619.463
21600763.438 4580541.016 -2842.928
21600813.945 4580555.680 -2825.983
21600428.680 4580453.781 -2973.679
21599562.523 4580540.500 -2781.306
21600129.789 4580316.070 -2979.713
21598937.273 4580163.359 -2763.661
21599435.148 4579849.406 -3057.069
21599345.938 4579717.867 -3108.859
21599702.008 4580003.281 -3038.326
21600028.273 4580269.539 -2981.659
21599574.516 4579899.188 -3060.492
21599500.852 4579835.922 -3068.229
21599461.422 4579802.102 -3072.437
21599126.664 4579542.961 -3153.679
21599080.477 4579504.219 -3164.175
21597982.234 4579595.336 -2717.256
21598964.367 4579398.672 -3177.826
21598165.547 4578855.516 -3032.483
21598214.617 4578885.805 -3041.154
21597836.133 4578654.734 -2979.384
21597859.781 4578589.000 -3010.085
21597930.609 4578409.672 -3082.295
21598496.602 4579059.875 -3090.981
21598862.422 4579292.297 -3168.867
21598921.063 4579353.586 -3173.990
21602783.344 4581362.141 -1764.751
21603536.789 4581605.906 -1198.977
21603635.961 4581638.000 -1124.499
21604184.422 4581829.297 -677.815
21604469.734 4581976.234 -326.175
21601986.508 4581589.719 -594.793
21604483.219 4581977.781 -302.309
21600159.070 4581724.094 -511.552
21599991.641 4581786.586 -144.542
21600968.992 4581841.148 216.903
21598898.781 4581821.641 89.263
21599762.711 4581910.680 186.545
21598675.859 4581994.844 367.943
21598425.000 4582072.500 395.000
21598946.555 4581927.609 357.273
21598250.000 4582155.000 395.000
21598075.000 4582237.500 395.000
21597900.000 4582320.000 395.000
21597306.852 4581999.805 -553.314
21597500.000 4582370.000 262.500
21596800.000 4582195.000 -502.500
21597575.000 4582425.000 442.500
21597250.000 4582530.000 490.000
21597100.000 4582420.000 130.000
21596925.000 4582635.000 537.500
21596700.000 4582470.000 -2.500
21596600.000 4582740.000 585.000
21596300.000 4582520.000 -135.000
21596550.000 4582357.500 -318.750
21596200.000 4582930.000 570.000
21595975.000 4582765.000 30.000
21595800.000 4583120.000 555.000
21595850.000 4582675.000 -267.500
21595650.000 4583010.000 195.000
21595400.000 4582830.000 -400.000
21595150.000 4582620.000 -787.500
21595325.000 4583255.000 360.000
21595400.000 4583310.000 540.000
21594950.000 4582985.000 -532.500
21595000.000 4583500.000 525.000
21594500.000 4583140.000 -665.000
21594825.000 4582880.000 -726.250
21594100.000 4583357.500 -555.000
21593802.633 4582836.070 -1319.887
21594575.000 4583695.000 547.500
21593900.000 4583710.000 -25.000
21593700.000 4583575.000 -445.000
21594150.000 4583890.000 570.000
21593600.000 4583995.000 295.000
21593300.000 4583792.500 -335.000
21593725.000 4584085.000 592.500
21593300.000 4584280.000 615.000
21592900.000 4584010.000 -225.000
21592650.000 4584265.000 195.000
21591925.000 4584010.000 -112.500
21593075.000 4584340.000 615.000
21592850.000 4584400.000 615.000
21592625.000 4584460.000 615.000
21592400.000 4584520.000 615.000
21591588.359 4584226.352 531.002
21591265.875 4584019.188 499.222
21591231.445 4583751.375 -156.941
21591683.039 4583603.875 -744.563
21590679.586 4583748.141 479.183
21590975.000 4583390.000 -483.750
21590441.875 4583491.203 491.727
21590624.703 4583105.875 -236.683
21591099.555 4583242.328 -707.026
21590200.000 4583100.000 410.000
21590200.000 4582840.000 395.000
21590352.672 4582589.523 86.219
21590766.977 4582897.891 -596.729
21590200.000 4582637.500 383.317
21590202.398 4582580.148 375.390
21590212.352 4582341.813 342.442
21590214.359 4582293.789 335.804
21590213.141 4582151.133 329.930
21590210.453 4582096.258 331.937
21590210.367 4582075.320 332.689
21590212.672 4582067.648 332.931
21590843.063 4582448.039 -516.210
21591013.219 4583012.094 -874.489
21590244.406 4582010.063 331.772
21590643.133 4581561.695 168.112
21590219.773 4582053.547 333.334
21591077.305 4581576.820 -255.275
21590409.492 4581684.992 321.279
21590514.797 4581477.633 314.586
21590600.000 4581320.000 305.000
21590919.195 4581266.594 131.699
21590800.000 4580950.000 282.500
21591195.570 4581047.688 114.206
21591407.930 4581274.164 -170.198
21591000.000 4580580.000 260.000
21591609.523 4580811.188 -66.530
21591325.000 4580307.500 165.000
21591813.180 4580568.953 -46.464
21591225.000 4580222.500 252.500
21591450.000 4579865.000 245.000
21591650.000 4580035.000 70.000
21591675.000 4579507.500 237.500
21592080.586 4579718.500 -108.363
21591873.734 4580204.898 -151.888
21591900.000 4579150.000 230.000
21592294.008 4579537.406 -200.726
21592294.141 4580000.594 -342.740
21592397.367 4579143.070 -97.918
21592940.891 4579024.961 -507.724
21592125.000 4578862.500 226.250
21592608.141 4578746.234 -68.289
21592161.703 4578806.516 245.317
21592250.656 4578720.625 247.773
21592341.109 4578639.141 245.114
21592515.867 4578445.789 236.968
21592737.867 4578163.742 223.566
21593512.023 4578134.516 -680.875
21592910.719 4577911.352 210.383
21593489.867 4577702.023 -408.526
21593634.188 4577711.961 -597.813
21592947.938 4577835.633 205.754
21592972.859 4577784.945 202.655
21592980.078 4577770.258 201.757
21592980.789 4577695.305 195.509
21592978.695 4577666.125 195.224
21592996.602 4577584.242 193.885
21592997.734 4577579.039 193.800
21593028.852 4577436.703 191.472
21593037.531 4577390.539 192.567
21593167.102 4577001.961 201.255
21593177.992 4576973.523 201.877
21593777.172 4577722.359 -785.653
21593783.211 4577725.766 -791.967
21593807.711 4577739.734 -817.642
21593832.781 4577754.047 -843.923
21594155.383 4577935.719 -1181.298
21594185.492 4577952.672 -1212.788
21594433.867 4578129.875 -1452.230
21594561.992 4578321.492 -1521.289
21593264.203 4579006.422 -828.271
21592500.000 4579650.000 -385.000
21592333.375 4580526.609 -532.050
21592707.336 4580737.344 -900.003
21592096.508 4580311.898 -246.162
21592029.047 4580709.938 -345.283
21592001.883 4581095.125 -388.031
21592205.250 4581305.242 -781.590
21591706.625 4581407.938 -320.495
21591865.922 4581740.148 -808.280
21591440.016 4582075.891 -728.923
21593066.602 4581900.211 -1407.814
21592650.000 4582325.000 -1365.000
21592559.117 4581177.453 -968.122
21593254.016 4581633.859 -1419.574
21592385.578 4580910.250 -764.932
21592921.477 4580935.539 -1083.996
21593624.789 4582108.227 -1589.916
21593352.281 4582323.703 -1571.180
21593549.992 4582457.406 -1531.861
21593055.016 4582696.594 -1530.281
21593350.000 4582795.000 -1436.250
21592756.109 4583177.680 -1263.913
21593620.688 4582952.828 -1237.192
21593900.000 4582205.000 -1622.500
21594200.000 4582422.500 -1423.750
21594800.000 4582385.000 -1052.500
21594650.000 4582762.500 -858.750
21593020.797 4583206.352 -1054.196
21593550.000 4583445.000 -760.000
21593075.000 4583597.500 -807.500
21592537.594 4583511.031 -966.343
21591818.633 4583426.172 -1138.823
21592298.492 4583171.875 -1280.865
21591525.992 4583400.375 -1030.834
21591269.500 4583264.703 -981.859
21591590.227 4583274.734 -1172.604
21591971.602 4583159.000 -1298.444
21591169.742 4582720.945 -934.806
21591587.461 4582322.320 -1006.890
21591222.219 4583123.289 -1025.677
21591029.234 4583079.242 -822.309
21591379.445 4581640.883 -396.141
21592050.000 4582380.000 -1170.000
21592449.258 4582876.469 -1412.599
21602193.898 4581826.547 47.249
21604501.930 4581987.539 -279.423
21596476.273 4573630.836 -589.059
21596487.852 4573520.445 -426.731
21596527.977 4573198.813 42.647

POLYGONS 544 2176
3 315 196 316
3 143 144 152
3 197 198 200
3 34 33 30
3 319 320 314
3 57 52 55
3 121 158 157
3 133 134 135
3 169 168 112
3 117 115 116
3 120 121 153
3 62 98 63
3 276 275 2
3 25 24 19
3 114 163 161
3 314 320 195
3 219 218 217
3 87 86 85
3 28 27 25
3 308 85 84
3 30 25 31
3 26 54 31
3 164 161 163
3 58 61 60
3 162 161 164
3 324 322 313
3 86 75 85
3 170 169 112
3 184 186 190
3 134 136 138
3 302 303 311
3 87 89 86
3 67 70 71
3 295 249 296
3 289 0 288
3 280 279 1
3 320 202 199
3 52 60 53
3 10 9 6
3 96 93 94
3 291 80 77
3 74 72 76
3 122 120 124
3 257 254 258
3 51 50 149
3 104 101 103
3 238 236 233
3 95 180 181
3 223 219 224
3 38 37 35
3 234 331 329
3 165 111 166
3 193 196 195
3 75 86 71
3 334 335 303
3 170 110 171
3 23 22 19
3 171 105 103
3 98 62 66
3 197 192 195
3 335 334 328
3 19 26 25
3 87 316 89
3 135 134 140
3 4 273 270
3 0 270 271
3 5 0 6
3 96 66 93
3 64 65 62
3 9 5 6
3 54 20 6
3 103 99 96
3 252 255 254
3 24 23 19
3 273 272 270
3 76 61 58
3 304 305 307
3 1 3 2
3 112 109 110
3 61 73 69
3 297 245 299
3 234 224 332
3 311 303 335
3 196 318 316
3 100 102 101
3 63 100 101
3 288 0 287
3 239 236 240
3 123 118 122
3 123 133 119
3 158 336 159
3 316 317 89
3 217 215 220
3 330 329 328
3 305 302 308
3 247 297 296
3 321 320 319
3 134 131 136
3 214 213 207
3 12 11 6
3 120 117 121
3 307 294 304
3 107 118 119
3 285 284 268
3 234 329 233
3 47 43 48
3 213 212 207
3 41 40 35
3 94 95 97
3 88 92 91
3 204 205 206
3 277 276 3
3 115 106 113
3 290 54 289
3 235 232 233
3 37 34 35
3 49 46 47
3 160 113 114
3 293 294 82
3 78 76 58
3 198 197 195
3 302 298 300
3 158 121 116
3 298 302 304
3 36 50 43
3 335 328 324
3 19 12 20
3 104 105 108
3 60 61 64
3 42 41 35
3 10 6 11
3 97 171 96
3 72 70 69
3 166 111 112
3 108 105 110
3 70 75 71
3 323 215 322
3 65 66 62
3 120 122 118
3 35 34 30
3 252 251 248
3 258 295 293
3 180 95 91
3 305 308 84
3 242 241 236
3 59 52 57
3 60 52 58
3 254 255 258
3 232 231 224
3 58 56 78
3 180 183 182
3 143 151 150
3 162 336 158
3 69 70 67
3 251 250 248
3 137 131 132
3 74 81 83
3 74 83 75
3 90 93 65
3 182 183 184
3 313 311 335
3 106 104 108
3 117 116 121
3 261 259 262
3 30 36 35
3 20 26 19
3 79 292 82
3 205 321 322
3 176 175 172
3 180 185 183
3 85 308 315
3 215 326 220
3 77 74 76
3 0 2 4
3 196 314 195
3 304 302 305
3 216 213 214
3 54 56 55
3 11 14 13
3 260 292 80
3 228 227 223
3 53 147 148
3 171 103 96
3 63 143 53
3 92 317 188
3 94 91 95
3 185 180 91
3 262 259 260
3 0 284 285
3 279 278 1
3 252 249 255
3 146 143 150
3 64 67 65
3 0 54 6
3 222 221 219
3 312 313 319
3 256 254 257
3 191 189 187
3 220 332 224
3 325 327 326
3 235 233 236
3 171 97 173
3 40 39 35
3 109 108 110
3 160 161 158
3 105 171 110
3 43 42 35
3 98 100 63
3 323 327 325
3 267 266 262
3 2 274 4
3 286 0 285
3 189 192 190
3 31 36 30
3 32 29 30
3 208 204 206
3 268 262 260
3 129 128 127
3 202 201 198
3 248 247 249
3 207 206 205
3 235 237 232
3 102 99 103
3 334 303 300
3 176 173 178
3 62 63 53
3 244 243 242
3 263 261 262
3 131 134 133
3 18 17 12
3 113 106 111
3 258 293 82
3 321 202 320
3 133 135 141
3 36 52 50
3 244 242 245
3 212 211 207
3 166 112 168
3 196 310 312
3 125 120 153
3 67 68 65
3 82 294 307
3 272 269 270
3 54 52 31
3 243 241 242
3 104 106 101
3 289 288 78
3 62 60 64
3 119 63 101
3 99 102 100
3 275 274 2
3 208 206 209
3 143 119 133
3 248 249 252
3 299 245 238
3 297 299 300
3 106 108 109
3 307 84 81
3 22 21 19
3 69 67 64
3 70 74 75
3 16 14 11
3 109 112 111
3 312 319 314
3 163 165 167
3 81 84 83
3 274 273 4
3 18 12 19
3 31 52 36
3 180 179 178
3 223 222 219
3 185 186 183
3 64 61 69
3 14 15 13
3 219 217 220
3 154 121 155
3 117 107 115
3 242 236 238
3 90 68 71
3 179 180 182
3 131 122 130
3 90 88 91
3 201 204 203
3 242 238 245
3 323 325 215
3 158 116 160
3 75 83 85
3 176 177 175
3 89 317 88
3 196 193 318
3 79 74 77
3 52 54 55
3 200 198 201
3 158 159 157
3 13 10 11
3 131 137 136
3 56 290 78
3 303 302 300
3 170 172 174
3 215 214 207
3 45 44 43
3 286 268 78
3 230 223 224
3 185 92 187
3 327 331 326
3 202 205 201
3 200 201 203
3 256 253 254
3 188 318 194
3 107 119 101
3 187 186 185
3 324 323 322
3 117 118 107
3 151 143 152
3 160 114 161
3 128 122 127
3 96 94 97
3 118 123 119
3 143 133 142
3 215 207 322
3 336 337 159
3 59 57 58
3 225 222 223
3 277 3 1
3 265 264 262
3 339 340 13
3 121 156 155
3 25 26 31
3 207 205 322
3 301 329 330
3 199 202 198
3 74 79 81
3 48 50 51
3 295 255 249
3 292 79 80
3 315 87 85
3 86 89 88
3 0 4 270
3 267 262 268
3 143 146 145
3 194 193 191
3 309 310 308
3 191 192 189
3 33 32 30
3 106 109 111
3 50 53 148
3 99 98 96
3 27 24 25
3 44 42 43
3 57 55 58
3 0 1 2
3 17 16 11
3 319 322 321
3 5 1 0
3 0 286 287
3 269 268 270
3 297 298 296
3 260 291 268
3 326 332 220
3 160 116 113
3 94 93 91
3 317 92 88
3 293 306 294
3 98 99 100
3 329 327 328
3 71 86 88
3 310 309 311
3 92 185 91
3 300 299 301
3 259 256 257
3 163 114 111
3 318 317 316
3 140 134 139
3 230 229 223
3 139 134 138
3 239 235 236
3 142 133 141
3 164 163 167
3 318 193 194
3 173 181 178
3 149 50 148
3 1 7 8
3 320 199 195
3 255 295 258
3 283 0 271
3 271 270 268
3 322 319 313
3 328 323 324
3 188 317 318
3 131 130 132
3 218 216 217
3 46 45 43
3 143 142 144
3 115 113 116
3 20 54 26
3 282 1 8
3 121 154 153
3 9 7 5
3 292 258 82
3 53 143 145
3 81 82 307
3 187 189 186
3 224 234 233
3 257 292 260
3 60 62 53
3 232 224 233
3 329 301 233
3 301 333 233
3 59 58 52
3 5 7 1
3 120 118 117
3 305 84 307
3 310 196 315
3 231 230 224
3 288 287 78
3 215 325 326
3 95 181 97
3 85 83 84
3 98 66 96
3 321 205 202
3 306 298 304
3 20 12 6
3 292 257 258
3 55 56 58
3 264 263 262
3 278 277 1
3 269 267 268
3 178 177 176
3 330 334 300
3 88 90 71
3 72 74 70
3 247 246 244
3 165 163 111
3 309 302 311
3 299 238 333
3 299 333 301
3 217 216 214
3 186 189 190
3 43 50 48
3 91 93 90
3 106 107 101
3 205 204 201
3 313 312 311
3 287 286 78
3 301 330 300
3 312 310 311
3 72 73 76
3 21 18 19
3 224 219 220
3 327 323 328
3 215 217 214
3 324 313 335
3 73 72 69
3 266 265 262
3 172 175 174
3 50 52 53
3 92 188 187
3 54 0 289
3 261 256 259
3 161 162 158
3 196 312 314
3 93 66 65
3 308 310 315
3 259 257 260
3 282 281 1
3 298 297 300
3 147 53 145
3 226 225 223
3 297 247 245
3 156 121 157
3 302 309 308
3 249 247 296
3 250 246 248
3 234 332 326
3 122 128 130
3 210 209 206
3 333 238 233
3 131 133 123
3 293 295 296
3 17 11 12
3 247 244 245
3 207 211 206
3 0 283 284
3 114 113 111
3 80 79 77
3 15 338 13
3 122 126 127
3 122 124 126
3 221 218 219
3 286 285 268
3 176 172 173
3 246 243 244
3 296 306 293
3 76 73 61
3 187 188 191
3 199 198 195
3 268 77 78
3 253 252 254
3 227 226 223
3 331 327 329
3 229 228 223
3 211 210 206
3 35 36 43
3 188 194 191
3 315 316 87
3 294 306 304
3 105 104 103
3 29 25 30
3 290 289 78
3 284 283 268
3 65 68 90
3 281 280 1
3 107 106 115
3 79 82 81
3 283 271 268
3 192 193 195
3 29 28 25
3 338 339 13
3 172 170 171
3 46 43 47
3 77 76 78
3 183 186 184
3 181 180 178
3 296 298 306
3 253 251 252
3 56 54 290
3 110 170 112
3 236 241 240
3 331 234 326
3 120 125 124
3 178 179 177
3 131 123 122
3 334 330 328
3 3 276 2
3 193 192 191
3 268 291 77
3 246 247 248
3 39 38 35
3 181 173 97
3 143 63 119
3 172 171 173
3 260 80 291
3 101 102 103
3 68 67 71

POINT_DATA 341
COLOR_SCALARS GocadColor 4
0.0941176 0.0941176 0.439216 1
0.0941176 0.0941176 0.439216 1
0.0941176 0.0941176 0.439216 1
0.0941176 0.0941176 0.439216 1
0.0941176 0.0941176 0.439216 1
0.0941176 0.0941176 0.439216 1
0.0941176 0.0941176 0.439216 1
0.0941176 0.0941176 0.439216 1
0.0941176 0.0941176 0.439216 1
0.0941176 0.0941176 0.439216 1
0.0941176 0.0941176 0.439216 1
0.0941176 0.0941176 0.439216 1
0.0941176 0.0941176 0.439216 1
0.0941176 0.0941176 0.439216 1
0.0941176 0.0941176 0.439216 1
0.0941176 0.0941176 0.439216 1
0.0941176 0.0941176 0.439216 1
0.0941176 0.0941176 0.439216 1
0.0941176 0.0941176 0.439216 1
0.0941176 0.0941176 0.439216 1
0.0941176 0.0941176 0.439216 1
0.0941176 0.0941176 0.439216 1
0.0941176 0.0941176 0.439216 1
0.0941176 0.0941176 0.439216 1
0.0941176 0.0941176 0.439216 1
0.0941176 0.0941176 0.439216 1
0.0941176 0.0941176 0.439216 1
0.0941176 0.0941176 0.439216 1
0.0941176 0.0941176 0.439216 1
0.0941176 0.0941176 0.439216 1
0.0941176 0.0941176 0.439216 1
0.0941176 0.0941176 0.439216 1
0.0941176 0.0941176 0.439216 1
0.0941176 0.0941176 0.439216 1
0.0941176 0.0941176 0.439216 1
0.0941176 0.0941176 0.439216 1
0.0941176 0.0941176 0.439216 1
0.0941176 0.0941176 0.439216 1
0.0941176 0.0941176 0.439216 1
0.0941176 0.0941176 0.439216 1
0.0941176 0.0941176 0.439216 1
0.0941176 0.0941176 0.439216 1
0.0941176 0.0941176 0.439216 1
0.0941176 0.0941176 0.439216 1
0.0941176 0.0941176 0.439216 1
0.0941176 0.0941176 0.439216 1
0.0941176 0.0941176 0.439216 1
0.0941176 0.0941176 0.439216 1
0.0941176 0.0941176 0.439216 1
0.0941176 0.0941176 0.439216 1
0.0941176 0.0941176 0.439216 1
0.0941176 0.0941176 0.439216 1
0.0941176 0.0941176 0.439216 1
0.0941176 0.0941176 0.439216 1
0.0941176 0.0941176 0.439216 1
0.0941176 0.0941176 0.439216 1
0.0941176 0.0941176 0.439216 1
0.0941176 0.0941176 0.439216 1
0.0941176 0.0941176 0.439216 1
0.0941176 0.0941176 0.439216 1
0.0941176 0.0941176 0.439216 1
0.0941176 0.0941176 0.439216 1
0.0941176 0.0941176 0.439216 1
0.0941176 0.0941176 0.439216 1
0.0941176 0.0941176 0.439216 1
0.0941176 0.0941176 0.439216 1
0.0941176 0.0941176 0.439216 1
0.0941176 0.0941176 0.439216 1
0.0941176 0.0941176 0.439216 1
0.0941176 0.0941176 0.439216 1
0.0941176 0.0941176 0.439216 1
0.0941176 0.0941176 0.439216 1
0.0941176 0.0941176 0.439216 1
0.0941176 0.0941176 0.439216 1
0.0941176 0.0941176 0.439216 1
0.0941176 0.0941176 0.439216 1
0.0941176 0.0941176 0.439216 1
0.0941176 0.0941176 0.439216 1
0.0941176 0.0941176 0.439216 1
0.0941176 0.0941176 0.439216 1
0.0941176 0.0941176 0.439216 1
0.0941176 0.0941176 0.439216 1
0.0941176 0.0941176 0.439216 1
0.0941176 0.0941176 0.439216 1
0.0941176 0.0941176 0.439216 1
0.0941176 0.0941176 0.439216 1
0.0941176 0.0941176 0.439216 1
0.0941176 0.0941176 0.439216 1
0.0941176 0.0941176 0.439216 1
0.0941176 0.0941176 0.439216 1
0.0941176 0.0941176 0.439216 1
0.0941176 0.0941176 0.439216 1
0.0941176 0.0941176 0.439216 1
0.0941176 0.0941176 0.439216 1
0.0941176 0.0941176 0.439216 1
0.0941176 0.0941176 0.439216 1
0.0941176 0.0941176 0.439216 1
0.0941176 0.0941176 0.439216 1
0.0941176 0.0941176 0.439216 1
0.0941176 0.0941176 0.439216 1
0.0941176 0.0941176 0.439216 1
0.0941176 0.0941176 0.439216 1
0.0941176 0.0941176 0.439216 1
0.0941176 0.0941176 0.439216 1
0.0941176 0.0941176 0.439216 1
0.0941176 0.0941176 0.439216 1
0.0941176 0.0941176 0.439216 1
0.0941176 0.0941176 0.439216 1
0.0941176 0.0941176 0.439216 1
0.0941176 0.0941176 0.439216 1
0.0941176 0.0941176 0.439216 1
0.0941176 0.0941176 0.439216 1
0.0941176 0.0941176 0.439216 1
0.0941176 0.0941176 0.439216 1
0.0941176 0.0941176 0.439216 1
0.0941176 0.0941176 0.439216 1
0.0941176 0.0941176 0.439216 1
0.0941176 0.0941176 0.439216 1
0.0941176 0.0941176 0.439216 1
0.0941176 0.0941176 0.439216 1
0.0941176 0.0941176 0.439216 1
0.0941176 0.0941176 0.439216 1
0.0941176 0.0941176 0.439216 1
0.0941176 0.0941176 0.439216 1
0.0941176 0.0941176 0.439216 1
0.0941176 0.0941176 0.439216 1
0.0941176 0.0941176 0.439216 1
0.0941176 0.0941176 0.439216 1
0.0941176 0.0941176 0.439216 1
0.0941176 0.0941176 0.439216 1
0.0941176 0.0941176 0.439216 1
0.0941176 0.0941176 0.439216 1
0.0941176 0.0941176 0.439216 1
0.0941176 0.0941176 0.439216 1
0.0941176 0.0941176 0.439216 1
0.0941176 0.0941176 0.439216 1
0.0941176 0.0941176 0.439216 1
0.0941176 0.0941176 0.439216 1
0.0941176 0.0941176 0.439216 1
0.0941176 0.0941176 0.439216 1
0.0941176 0.0941176 0.439216 1
0.0941176 0.0941176 0.439216 1
0.0941176 0.0941176 0.439216 1
0.0941176 0.0941176 0.439216 1
0.0941176 0.0941176 0.439216 1
0.0941176 0.0941176 0.439216 1
0.0941176 0.0941176 0.439216 1
0.0941176 0.0941176 0.439216 1
0.0941176 0.0941176 0.439216 1
0.0941176 0.0941176 0.439216 1
0.0941176 0.0941176 0.439216 1
0.0941176 0.0941176 0.439216 1
0.0941176 0.0941176 0.439216 1
0.0941176 0.0941176 0.439216 1
0.0941176 0.0941176 0.439216 1
0.0941176 0.0941176 0.439216 1
0.0941176 0.0941176 0.439216 1
0.0941176 0.0941176 0.439216 1
0.0941176 0.0941176 0.439216 1
0.0941176 0.0941176 0.439216 1
0.0941176 0.0941176 0.439216 1
0.0941176 0.0941176 0.439216 1
0.0941176 0.0941176 0.439216 1
0.0941176 0.0941176 0.439216 1
0.0941176 0.0941176 0.439216 1
0.0941176 0.0941176 0.439216 1
0.0941176 0.0941176 0.439216 1
0.0941176 0.0941176 0.439216 1
0.0941176 0.0941176 0.439216 1
0.0941176 0.0941176 0.439216 1
0.0941176 0.0941176 0.439216 1
0.0941176 0.0941176 0.439216 1
0.0941176 0.0941176 0.439216 1
0.0941176 0.0941176 0.439216 1
0.0941176 0.0941176 0.439216 1
0.0941176 0.0941176 0.439216 1
0.0941176 0.0941176 0.439216 1
0.0941176 0.0941176 0.439216 1
0.0941176 0.0941176 0.439216 1
0.0941176 0.0941176 0.439216 1
0.0941176 0.0941176 0.439216 1
0.0941176 0.0941176 0.439216 1
0.0941176 0.0941176 0.439216 1
0.0941176 0.0941176 0.439216 1
0.0941176 0.0941176 0.439216 1
0.0941176 0.0941176 0.439216 1
0.0941176 0.0941176 0.439216 1
0.0941176 0.0941176 0.439216 1
0.0941176 0.0941176 0.439216 1
0.0941176 0.0941176 0.439216 1
0.0941176 0.0941176 0.439216 1
0.0941176 0.0941176 0.439216 1
0.0941176 0.0941176 0.439216 1
0.0941176 0.0941176 0.439216 1
0.0941176 0.0941176 0.439216 1
0.0941176 0.0941176 0.439216 1
0.0941176 0.0941176 0.439216 1
0.0941176 0.0941176 0.439216 1
0.0941176 0.0941176 0.439216 1
0.0941176 0.0941176 0.439216 1
0.0941176 0.0941176 0.439216 1
0.0941176 0.0941176 0.439216 1
0.0941176 0.0941176 0.439216 1
0.0941176 0.0941176 0.439216 1
0.0941176 0.0941176 0.439216 1
0.0941176 0.0941176 0.439216 1
0.0941176 0.0941176 0.439216 1
0.0941176 0.0941176 0.439216 1
0.0941176 0.0941176 0.439216 1
0.0941176 0.0941176 0.439216 1
0.0941176 0.0941176 0.439216 1
0.0941176 0.0941176 0.439216 1
0.0941176 0.0941176 0.439216 1
0.0941176 0.0941176 0.439216 1
0.0941176 0.0941176 0.439216 1
0.0941176 0.0941176 0.439216 1
0.0941176 0.0941176 0.439216 1
0.0941176 0.0941176 0.439216 1
0.0941176 0.0941176 0.439216 1
0.0941176 0.0941176 0.439216 1
0.0941176 0.0941176 0.439216 1
0.0941176 0.0941176 0.439216 1
0.0941176 0.0941176 0.439216 1
0.0941176 0.0941176 0.439216 1
0.0941176 0.0941176 0.439216 1
0.0941176 0.0941176 0.439216 1
0.0941176 0.0941176 0.439216 1
0.0941176 0.0941176 0.439216 1
0.0941176 0.0941176 0.439216 1
0.0941176 0.0941176 0.439216 1
0.0941176 0.0941176 0.439216 1
0.0941176 0.0941176 0.439216 1
0.0941176 0.0941176 0.439216 1
0.0941176 0.0941176 0.439216 1
0.0941176 0.0941176 0.439216 1
0.0941176 0.0941176 0.439216 1
0.0941176 0.0941176 0.439216 1
0.0941176 0.0941176 0.439216 1
0.0941176 0.0941176 0.439216 1
0.0941176 0.0941176 0.439216 1
0.0941176 0.0941176 0.439216 1
0.0941176 0.0941176 0.439216 1
0.0941176 0.0941176 0.439216 1
0.0941176 0.0941176 0.439216 1
0.0941176 0.0941176 0.439216 1
0.0941176 0.0941176 0.439216 1
0.0941176 0.0941176 0.439216 1
0.0941176 0.0941176 0.439216 1
0.0941176 0.0941176 0.439216 1
0.0941176 0.0941176 0.439216 1
0.0941176 0.0941176 0.439216 1
0.0941176 0.0941176 0.439216 1
0.0941176 0.0941176 0.439216 1
0.0941176 0.0941176 0.439216 1
0.0941176 0.0941176 0.439216 1
0.0941176 0.0941176 0.439216 1
0.0941176 0.0941176 0.439216 1
0.0941176 0.0941176 0.439216 1
0.0941176 0.0941176 0.439216 1
0.0941176 0.0941176 0.439216 1
0.0941176 0.0941176 0.439216 1
0.0941176 0.0941176 0.439216 1
0.0941176 0.0941176 0.439216 1
0.0941176 0.0941176 0.439216 1
0.0941176 0.0941176 0.439216 1
0.0941176 0.0941176 0.439216 1
0.0941176 0.0941176 0.439216 1
0.0941176 0.0941176 0.439216 1
0.0941176 0.0941176 0.439216 1
0.0941176 0.0941176 0.439216 1
0.0941176 0.0941176 0.439216 1
0.0941176 0.0941176 0.439216 1
0.0941176 0.0941176 0.439216 1
0.0941176 0.0941176 0.439216 1
0.0941176 0.0941176 0.439216 1
0.0941176 0.0941176 0.439216 1
0.0941176 0.0941176 0.439216 1
0.0941176 0.0941176 0.439216 1
0.0941176 0.0941176 0.439216 1
0.0941176 0.0941176 0.439216 1
0.0941176 0.0941176 0.439216 1
0.0941176 0.0941176 0.439216 1
0.0941176 0.0941176 0.439216 1
0.0941176 0.0941176 0.439216 1
0.0941176 0.0941176 0.439216 1
0.0941176 0.0941176 0.439216 1
0.0941176 0.0941176 0.439216 1
0.0941176 0.0941176 0.439216 1
0.0941176 0.0941176 0.439216 1
0.0941176 0.0941176 0.439216 1
0.0941176 0.0941176 0.439216 1
0.0941176 0.0941176 0.439216 1
0.0941176 0.0941176 0.439216 1
0.0941176 0.0941176 0.439216 1
0.0941176 0.0941176 0.439216 1
0.0941176 0.0941176 0.439216 1
0.0941176 0.0941176 0.439216 1
0.0941176 0.0941176 0.439216 1
0.0941176 0.0941176 0.439216 1
0.0941176 0.0941176 0.439216 1
0.0941176 0.0941176 0.439216 1
0.0941176 0.0941176 0.439216 1
0.0941176 0.0941176 0.439216 1
0.0941176 0.0941176 0.439216 1
0.0941176 0.0941176 0.439216 1
0.0941176 0.0941176 0.439216 1
0.0941176 0.0941176 0.439216 1
0.0941176 0.0941176 0.439216 1
0.0941176 0.0941176 0.439216 1
0.0941176 0.0941176 0.439216 1
0.0941176 0.0941176 0.439216 1
0.0941176 0.0941176 0.439216 1
0.0941176 0.0941176 0.439216 1
0.0941176 0.0941176 0.439216 1
0.0941176 0.0941176 0.439216 1
0.0941176 0.0941176 0.439216 1
0.0941176 0.0941176 0.439216 1
0.0941176 0.0941176 0.439216 1
0.0941176 0.0941176 0.439216 1
0.0941176 0.0941176 0.439216 1
0.0941176 0.0941176 0.439216 1
0.0941176 0.0941176 0.439216 1
0.0941176 0.0941176 0.439216 1
0.0941176 0.0941176 0.439216 1
0.0941176 0.0941176 0.439216 1
0.0941176 0.0941176 0.439216 1
0.0941176 0.0941176 0.439216 1
0.0941176 0.0941176 0.439216 1
0.0941176 0.0941176 0.439216 1
0.0941176 0.0941176 0.439216 1
0.0941176 0.0941176 0.439216 1
0.0941176 0.0941176 0.439216 1
0.0941176 0.0941176 0.439216 1
0.0941176 0.0941176 0.439216 1
0.0941176 0.0941176 0.439216 1
0.0941176 0.0941176 0.439216 1
0.0941176 0.0941176 0.439216 1
0.0941176 0.0941176 0.439216 1
0.0941176 0.0941176 0.439216 1
0.0941176 0.0941176 0.439216 1
0.0941176 0.0941176 0.439216 1

