# vtk DataFile Version 3.0
Gocad TSurf to VTK
ASCII
DATASET POLYDATA
POINTS 265 float
21599545.531 4576368.789 -274.510
21599025.727 4576062.242 -108.097
21599192.758 4576529.422 -373.888
21598761.938 4576549.977 -402.094
21599632.000 4576659.898 -445.266
21599491.625 4576194.023 -174.914
21599454.125 4576048.383 -81.069
21599404.133 4575891.664 5.825
21599298.305 4575649.641 138.741
21598743.977 4575810.500 102.257
21599331.156 4575680.578 122.614
21598469.531 4576137.578 -126.596
21599209.305 4575537.727 227.422
21599206.977 4575516.555 258.969
21598574.172 4575763.125 266.339
21598276.203 4576000.320 109.384
21599204.359 4575496.461 289.149
21598099.289 4575941.922 249.486
21597900.000 4576382.500 -80.000
21597675.000 4576067.500 252.500
21598311.117 4576910.922 -536.180
21597983.648 4577093.070 -523.077
21598627.672 4576846.406 -555.209
21598763.156 4577628.969 -950.202
21598949.656 4576993.656 -661.480
21599542.781 4576927.977 -604.688
21599107.477 4577389.984 -843.226
21599679.422 4576794.016 -512.854
21599680.297 4576796.570 -514.174
21599682.953 4576802.008 -516.893
21599737.836 4576914.516 -573.153
21599581.367 4577246.313 -771.157
21599803.570 4577045.531 -635.452
21599838.117 4577119.172 -674.703
21599899.070 4577277.484 -760.287
21599808.297 4577427.477 -833.948
21599906.844 4577265.703 -752.799
21599695.742 4577627.281 -909.989
21599668.406 4577674.117 -930.320
21599237.258 4577656.172 -957.325
21599650.344 4577705.383 -943.879
21599003.961 4578158.289 -1140.227
21599303.914 4577972.500 -1069.790
21599153.172 4578156.766 -1137.753
21599304.125 4577972.258 -1069.701
21599360.789 4577936.602 -1056.194
21599597.672 4577795.539 -982.988
21599612.102 4577770.836 -972.292
21599598.367 4577794.578 -982.560
21599639.242 4577723.969 -951.966
21599597.992 4577795.352 -982.890
21599111.672 4578213.695 -1149.488
21599025.086 4578341.828 -1163.440
21599017.438 4578353.484 -1164.299
21598826.727 4578235.945 -1137.313
21599015.500 4578357.164 -1163.690
21598782.867 4578100.977 -1078.060
21598637.078 4578282.797 -1099.228
21598523.695 4578091.031 -1041.991
21599010.289 4578367.516 -1161.566
21599010.320 4578367.563 -1161.569
21598637.453 4578593.555 -1065.547
21599011.977 4578368.539 -1161.780
21598200.000 4578615.000 -875.000
21598065.250 4578319.109 -791.466
21598400.000 4578845.000 -867.500
21598000.000 4578927.500 -607.500
21598791.977 4578922.156 -924.448
21598600.000 4579105.000 -670.000
21599146.820 4578740.344 -1087.419
21599641.430 4579248.500 -801.547
21599033.508 4578379.813 -1161.485
21599342.516 4578534.609 -1143.462
21599478.891 4578608.297 -1146.263
21599483.500 4578741.414 -1124.539
21599487.734 4578612.781 -1145.800
21599923.336 4579187.953 -844.638
21600034.227 4579533.266 -257.800
21599695.219 4578796.344 -1113.016
21599945.945 4578977.523 -1009.953
21599580.742 4578699.109 -1137.410
21599546.852 4578666.578 -1138.793
21599952.250 4578982.078 -1007.359
21599981.125 4578998.828 -989.051
21600037.211 4579031.383 -953.472
21600037.859 4579031.773 -953.092
21600053.719 4579041.406 -943.727
21600054.133 4579041.547 -943.571
21600216.961 4579135.109 -851.556
21600223.383 4579138.180 -846.909
21600331.289 4579380.328 -552.212
21600391.109 4579234.828 -752.551
21600356.758 4579555.453 -305.629
21600500.000 4579580.000 35.000
21600775.000 4579500.000 -412.500
21600981.500 4579460.914 -182.775
21600533.641 4579282.906 -716.638
21600725.617 4579338.109 -651.057
21600392.414 4579235.375 -752.079
21601031.273 4579368.438 -440.191
21601059.516 4579371.195 -420.769
21601094.852 4579374.672 -396.434
21601194.367 4579357.344 -277.839
21601325.914 4579345.367 -141.269
21601339.406 4579344.125 -127.283
21601353.258 4579342.852 -112.968
21601454.742 4579333.625 -7.544
21601064.531 4579407.375 194.217
21601541.219 4579301.039 127.950
21600668.469 4579615.922 245.596
21600563.258 4579674.883 265.883
21600952.531 4579483.906 241.499
21600958.117 4579481.281 241.358
21600243.227 4579622.969 306.346
21600200.000 4579610.000 295.000
21600204.453 4579616.680 311.248
21600177.289 4579612.273 314.682
21599934.000 4579612.969 349.133
21599350.000 4579442.500 -168.750
21599760.570 4579589.930 371.528
21599167.898 4579292.719 -597.644
21598900.000 4579445.000 -142.500
21598800.000 4579305.000 -442.500
21598300.000 4579277.500 -380.000
21598450.000 4579447.500 -116.250
21598600.000 4579537.500 247.500
21599000.000 4579505.000 100.000
21598220.211 4579568.359 387.547
21598204.086 4579568.000 386.651
21598621.727 4579580.953 410.454
21598960.563 4579591.586 429.785
21598988.656 4579592.469 431.388
21599043.977 4579592.953 429.815
21599366.984 4579595.781 420.630
21599429.781 4579596.625 418.896
21599456.727 4579596.188 415.047
21598000.000 4579450.000 -90.000
21598196.383 4579567.828 386.222
21597800.000 4579240.000 -340.000
21597460.141 4579447.297 28.371
21597349.633 4579296.633 -70.583
21597719.781 4579653.617 357.503
21597595.703 4579676.984 349.972
21597801.930 4579667.875 365.555
21598181.938 4579571.711 386.081
21597369.227 4579759.078 384.663
21597285.523 4579791.203 397.600
21597079.406 4579683.156 198.113
21596947.656 4579912.984 449.308
21596874.805 4579376.227 8.377
21596767.406 4579701.586 119.057
21596736.953 4579249.172 -24.882
21596800.281 4579793.172 248.668
21596906.172 4579928.445 455.690
21596376.102 4579979.445 188.942
21596500.094 4580079.906 524.911
21596396.000 4579628.172 -42.891
21596101.344 4579880.727 -28.910
21595927.047 4579740.805 -47.070
21596200.000 4580105.000 193.750
21595916.016 4580045.055 41.943
21596250.000 4580127.500 328.750
21596000.000 4580210.000 182.500
21596499.938 4580080.016 524.950
21596324.195 4580186.859 566.177
21596499.977 4580079.984 524.939
21596321.836 4580189.109 566.819
21596064.672 4580319.773 409.966
21596147.977 4580295.586 607.690
21595672.164 4580560.727 403.102
21595821.281 4580532.711 500.805
21595704.086 4580314.984 232.776
21595531.039 4580367.234 274.732
21595704.609 4580197.633 126.284
21595867.234 4579909.922 2.833
21595576.750 4580033.125 99.556
21595232.320 4580271.859 322.388
21595388.141 4579985.453 160.631
21595267.922 4580881.008 683.197
21595101.008 4580700.500 700.211
21595512.633 4580748.047 684.338
21595772.992 4580550.570 679.082
21595833.883 4580505.391 668.335
21595964.492 4580411.398 645.624
21596040.109 4580363.742 633.273
21596141.109 4580301.430 609.480
21594960.336 4580485.852 702.249
21595111.016 4580113.555 388.502
21595018.625 4579889.281 439.218
21595209.813 4579777.125 291.022
21594855.781 4580246.906 720.421
21594848.438 4580216.766 721.802
21594828.172 4580038.891 702.496
21594849.578 4580003.984 696.460
21595029.070 4579783.320 552.035
21595147.781 4579697.359 430.030
21594912.594 4579861.477 673.975
21594986.188 4579737.195 652.715
21595034.852 4579678.031 621.519
21595113.813 4579622.969 627.866
21595037.148 4579669.992 640.232
21595207.438 4579587.125 615.325
21595257.875 4579539.273 605.183
21595290.383 4579490.211 596.485
21595340.203 4579428.961 584.808
21595341.242 4579427.680 584.548
21595308.359 4579501.039 385.391
21595406.484 4579357.141 569.519
21595540.031 4579260.031 544.862
21595600.000 4579320.000 245.000
21595739.195 4579101.930 506.375
21595850.625 4579013.477 484.842
21595900.000 4579042.500 292.500
21596000.000 4579162.500 58.750
21595861.813 4579004.313 483.424
21596041.320 4578857.367 460.675
21596179.367 4578744.367 443.181
21596200.000 4578765.000 340.000
21596333.375 4578618.289 423.663
21596505.203 4578659.844 154.421
21596300.000 4578875.000 77.500
21596483.875 4578520.500 407.252
21596736.469 4578306.945 374.531
21596795.070 4578256.156 366.809
21596900.000 4578310.000 115.000
21596864.078 4578906.156 -44.539
21596822.883 4578232.883 361.770
21596840.336 4578164.336 355.337
21597025.000 4577847.500 52.500
21597096.984 4578378.531 -96.077
21596849.133 4578130.836 351.468
21596911.758 4577824.563 316.823
21596928.766 4577749.344 304.636
21596932.234 4577738.586 302.872
21597100.000 4577350.000 150.000
21597587.828 4577697.109 -549.405
21596965.625 4577612.766 297.280
21596972.141 4577586.531 297.035
21597019.391 4577253.266 291.073
21597027.523 4577195.875 290.046
21597250.000 4576920.000 7.500
21597786.625 4577353.742 -573.497
21597074.281 4576866.023 284.145
21597100.000 4576740.000 270.000
21597568.836 4576516.000 -30.465
21597198.898 4576413.383 224.335
21598472.734 4577982.922 -1004.819
21598232.875 4578030.813 -942.570
21597857.945 4578039.789 -752.682
21597500.000 4578362.500 -545.000
21597775.000 4578702.500 -607.500
21597408.406 4578801.867 -380.949
21597585.930 4578962.930 -398.206
21597161.477 4579129.070 -82.237
21597133.641 4578778.250 -104.525
21596627.250 4579103.164 -22.022
21596271.891 4579408.289 -59.157
21595797.273 4579559.438 -41.130
21595700.000 4579450.000 40.000
21595599.930 4579684.820 31.244
21595550.000 4579572.500 91.250
21595690.938 4579769.977 3.872
21595309.219 4579840.141 224.790
21596618.891 4580031.695 499.637
21599487.602 4578612.688 -1145.811

POLYGONS 376 1504
3 26 25 24
3 138 140 139
3 199 198 194
3 216 215 212
3 104 95 105
3 69 61 67
3 76 84 83
3 26 39 31
3 14 15 9
3 124 125 121
3 90 76 77
3 34 31 35
3 175 177 176
3 150 154 152
3 165 154 163
3 227 226 224
3 73 74 75
3 246 241 247
3 190 186 188
3 231 230 228
3 169 171 172
3 93 110 109
3 87 76 88
3 157 154 156
3 76 70 77
3 219 255 225
3 257 259 261
3 45 39 44
3 159 162 161
3 9 15 11
3 25 26 31
3 258 260 259
3 122 68 123
3 213 220 217
3 89 90 91
3 260 209 189
3 61 63 65
3 25 2 24
3 167 185 168
3 174 175 173
3 77 114 93
3 2 22 24
3 17 19 18
3 33 32 31
3 46 48 47
3 158 157 156
3 213 257 256
3 41 52 51
3 129 125 127
3 111 107 109
3 188 186 187
3 19 244 18
3 9 11 1
3 17 15 14
3 240 244 243
3 195 194 188
3 252 253 140
3 96 94 97
3 126 133 134
3 124 136 128
3 136 138 139
3 157 158 174
3 54 57 55
3 26 24 23
3 220 213 256
3 167 170 185
3 178 180 169
3 64 250 63
3 237 236 234
3 228 235 234
3 251 254 253
3 260 262 259
3 95 106 105
3 189 187 262
3 255 220 256
3 230 227 228
3 74 80 81
3 161 167 166
3 137 136 144
3 262 177 259
3 4 0 2
3 138 136 123
3 69 74 73
3 147 153 148
3 188 187 189
3 36 33 34
3 207 205 206
3 248 235 249
3 240 239 234
3 147 152 153
3 90 98 91
3 170 181 182
3 256 156 151
3 70 69 67
3 8 9 1
3 178 169 172
3 161 164 163
3 193 188 194
3 56 246 58
3 0 5 1
3 210 208 209
3 154 161 163
3 49 39 47
3 93 114 113
3 41 54 53
3 154 150 156
3 235 241 234
3 229 224 225
3 249 251 250
3 166 167 168
3 252 138 66
3 8 12 9
3 187 176 177
3 257 158 256
3 131 126 130
3 56 54 41
3 70 118 77
3 252 251 253
3 217 212 213
3 214 211 212
3 70 67 120
3 240 243 242
3 28 27 25
3 41 26 23
3 97 94 99
3 61 71 62
3 94 95 102
3 209 208 206
3 94 101 100
3 22 3 20
3 90 94 96
3 30 29 25
3 76 89 88
3 154 159 161
3 30 25 31
3 255 256 151
3 92 93 95
3 153 152 263
3 7 10 8
3 158 257 261
3 27 4 25
3 258 257 213
3 57 60 59
3 120 68 122
3 4 2 25
3 57 61 60
3 228 229 249
3 140 149 139
3 2 3 22
3 226 223 224
3 241 21 240
3 68 67 65
3 61 65 67
3 22 20 23
3 32 30 31
3 247 235 248
3 38 39 40
3 150 152 147
3 31 39 38
3 251 249 254
3 11 18 20
3 175 172 173
3 162 169 167
3 94 90 92
3 254 249 229
3 70 120 118
3 139 147 146
3 225 255 151
3 201 199 194
3 2 1 3
3 239 240 242
3 262 187 177
3 157 160 159
3 57 58 64
3 211 209 212
3 64 249 250
3 57 64 63
3 75 74 81
3 54 55 53
3 77 117 116
3 139 142 141
3 5 6 1
3 39 42 44
3 223 219 224
3 95 107 106
3 170 180 181
3 94 100 99
3 112 107 111
3 250 252 66
3 121 122 124
3 138 123 66
3 31 38 37
3 86 76 87
3 189 262 260
3 92 77 93
3 192 191 188
3 224 219 225
3 41 53 52
3 18 21 20
3 173 171 160
3 90 96 98
3 191 190 188
3 257 258 259
3 95 103 102
3 179 178 176
3 206 195 189
3 78 76 79
3 216 212 217
3 174 261 175
3 135 126 134
3 218 216 217
3 74 70 76
3 218 217 219
3 48 46 50
3 118 126 135
3 215 214 212
3 13 16 14
3 142 139 145
3 196 193 194
3 205 204 195
3 246 21 241
3 132 126 131
3 145 139 146
3 197 194 198
3 161 166 164
3 151 254 225
3 197 196 194
3 162 167 161
3 12 13 9
3 39 49 40
3 29 28 25
3 92 90 77
3 174 173 160
3 158 261 174
3 219 220 255
3 15 17 18
3 56 41 23
3 150 149 151
3 249 64 248
3 204 203 195
3 195 202 194
3 233 228 234
3 248 64 247
3 170 182 183
3 156 256 158
3 76 90 89
3 208 207 206
3 258 209 260
3 154 157 159
3 147 148 146
3 224 229 228
3 119 118 135
3 120 122 121
3 39 26 41
3 56 58 57
3 103 95 104
3 238 237 234
3 21 244 240
3 209 206 189
3 154 165 155
3 69 72 71
3 206 205 195
3 123 68 66
3 107 95 93
3 199 200 198
3 244 21 18
3 7 8 1
3 239 238 234
3 58 246 247
3 212 209 213
3 236 233 234
3 211 210 209
3 184 170 183
3 264 73 75
3 193 192 188
3 60 61 62
3 241 240 234
3 245 244 19
3 187 186 176
3 138 252 140
3 250 66 63
3 177 175 261
3 172 175 176
3 39 46 47
3 243 244 245
3 171 173 172
3 200 197 198
3 6 7 1
3 140 253 149
3 76 85 84
3 21 246 20
3 121 125 126
3 68 65 66
3 149 253 151
3 169 170 167
3 133 126 132
3 159 160 162
3 150 151 156
3 136 139 141
3 121 126 118
3 259 177 261
3 55 57 59
3 93 113 110
3 120 67 68
3 94 102 101
3 64 58 247
3 107 108 106
3 130 125 129
3 152 154 155
3 126 125 130
3 227 224 228
3 254 229 225
3 74 76 78
3 202 201 194
3 157 174 160
3 221 218 219
3 118 120 121
3 118 119 117
3 65 63 66
3 128 136 137
3 147 139 149
3 162 171 169
3 127 124 128
3 115 114 116
3 39 41 42
3 185 170 184
3 41 43 42
3 33 31 34
3 125 124 127
3 43 41 51
3 152 155 263
3 160 171 162
3 209 258 213
3 144 136 143
3 85 76 86
3 178 172 176
3 114 115 113
3 20 246 23
3 76 82 79
3 94 92 95
3 136 141 143
3 233 232 228
3 11 3 1
3 107 93 109
3 123 136 124
3 31 37 35
3 186 179 176
3 82 76 83
3 114 77 116
3 169 180 170
3 69 70 74
3 150 147 149
3 222 221 219
3 69 73 72
3 251 252 250
3 61 69 71
3 223 222 219
3 63 61 57
3 220 219 217
3 0 1 2
3 54 56 57
3 77 118 117
3 39 45 46
3 253 254 151
3 189 195 188
3 232 231 228
3 122 123 124
3 3 11 20
3 80 74 78
3 235 228 249
3 246 56 23
3 247 241 235
3 13 14 9
3 11 15 18
3 22 23 24
3 203 202 195

POINT_DATA 265
COLOR_SCALARS GocadColor 4
0.392157 0.584314 0.929412 1
0.392157 0.584314 0.929412 1
0.392157 0.584314 0.929412 1
0.392157 0.584314 0.929412 1
0.392157 0.584314 0.929412 1
0.392157 0.584314 0.929412 1
0.392157 0.584314 0.929412 1
0.392157 0.584314 0.929412 1
0.392157 0.584314 0.929412 1
0.392157 0.584314 0.929412 1
0.392157 0.584314 0.929412 1
0.392157 0.584314 0.929412 1
0.392157 0.584314 0.929412 1
0.392157 0.584314 0.929412 1
0.392157 0.584314 0.929412 1
0.392157 0.584314 0.929412 1
0.392157 0.584314 0.929412 1
0.392157 0.584314 0.929412 1
0.392157 0.584314 0.929412 1
0.392157 0.584314 0.929412 1
0.392157 0.584314 0.929412 1
0.392157 0.584314 0.929412 1
0.392157 0.584314 0.929412 1
0.392157 0.584314 0.929412 1
0.392157 0.584314 0.929412 1
0.392157 0.584314 0.929412 1
0.392157 0.584314 0.929412 1
0.392157 0.584314 0.929412 1
0.392157 0.584314 0.929412 1
0.392157 0.584314 0.929412 1
0.392157 0.584314 0.929412 1
0.392157 0.584314 0.929412 1
0.392157 0.584314 0.929412 1
0.392157 0.584314 0.929412 1
0.392157 0.584314 0.929412 1
0.392157 0.584314 0.929412 1
0.392157 0.584314 0.929412 1
0.392157 0.584314 0.929412 1
0.392157 0.584314 0.929412 1
0.392157 0.584314 0.929412 1
0.392157 0.584314 0.929412 1
0.392157 0.584314 0.929412 1
0.392157 0.584314 0.929412 1
0.392157 0.584314 0.929412 1
0.392157 0.584314 0.929412 1
0.392157 0.584314 0.929412 1
0.392157 0.584314 0.929412 1
0.392157 0.584314 0.929412 1
0.392157 0.584314 0.929412 1
0.392157 0.584314 0.929412 1
0.392157 0.584314 0.929412 1
0.392157 0.584314 0.929412 1
0.392157 0.584314 0.929412 1
0.392157 0.584314 0.929412 1
0.392157 0.584314 0.929412 1
0.392157 0.584314 0.929412 1
0.392157 0.584314 0.929412 1
0.392157 0.584314 0.929412 1
0.392157 0.584314 0.929412 1
0.392157 0.584314 0.929412 1
0.392157 0.584314 0.929412 1
0.392157 0.584314 0.929412 1
0.392157 0.584314 0.929412 1
0.392157 0.584314 0.929412 1
0.392157 0.584314 0.929412 1
0.392157 0.584314 0.929412 1
0.392157 0.584314 0.929412 1
0.392157 0.584314 0.929412 1
0.392157 0.584314 0.929412 1
0.392157 0.584314 0.929412 1
0.392157 0.584314 0.929412 1
0.392157 0.584314 0.929412 1
0.392157 0.584314 0.929412 1
0.392157 0.584314 0.929412 1
0.392157 0.584314 0.929412 1
0.392157 0.584314 0.929412 1
0.392157 0.584314 0.929412 1
0.392157 0.584314 0.929412 1
0.392157 0.584314 0.929412 1
0.392157 0.584314 0.929412 1
0.392157 0.584314 0.929412 1
0.392157 0.584314 0.929412 1
0.392157 0.584314 0.929412 1
0.392157 0.584314 0.929412 1
0.392157 0.584314 0.929412 1
0.392157 0.584314 0.929412 1
0.392157 0.584314 0.929412 1
0.392157 0.584314 0.929412 1
0.392157 0.584314 0.929412 1
0.392157 0.584314 0.929412 1
0.392157 0.584314 0.929412 1
0.392157 0.584314 0.929412 1
0.392157 0.584314 0.929412 1
0.392157 0.584314 0.929412 1
0.392157 0.584314 0.929412 1
0.392157 0.584314 0.929412 1
0.392157 0.584314 0.929412 1
0.392157 0.584314 0.929412 1
0.392157 0.584314 0.929412 1
0.392157 0.584314 0.929412 1
0.392157 0.584314 0.929412 1
0.392157 0.584314 0.929412 1
0.392157 0.584314 0.929412 1
0.392157 0.584314 0.929412 1
0.392157 0.584314 0.929412 1
0.392157 0.584314 0.929412 1
0.392157 0.584314 0.929412 1
0.392157 0.584314 0.929412 1
0.392157 0.584314 0.929412 1
0.392157 0.584314 0.929412 1
0.392157 0.584314 0.929412 1
0.392157 0.584314 0.929412 1
0.392157 0.584314 0.929412 1
0.392157 0.584314 0.929412 1
0.392157 0.584314 0.929412 1
0.392157 0.584314 0.929412 1
0.392157 0.584314 0.929412 1
0.392157 0.584314 0.929412 1
0.392157 0.584314 0.929412 1
0.392157 0.584314 0.929412 1
0.392157 0.584314 0.929412 1
0.392157 0.584314 0.929412 1
0.392157 0.584314 0.929412 1
0.392157 0.584314 0.929412 1
0.392157 0.584314 0.929412 1
0.392157 0.584314 0.929412 1
0.392157 0.584314 0.929412 1
0.392157 0.584314 0.929412 1
0.392157 0.584314 0.929412 1
0.392157 0.584314 0.929412 1
0.392157 0.584314 0.929412 1
0.392157 0.584314 0.929412 1
0.392157 0.584314 0.929412 1
0.392157 0.584314 0.929412 1
0.392157 0.584314 0.929412 1
0.392157 0.584314 0.929412 1
0.392157 0.584314 0.929412 1
0.392157 0.584314 0.929412 1
0.392157 0.584314 0.929412 1
0.392157 0.584314 0.929412 1
0.392157 0.584314 0.929412 1
0.392157 0.584314 0.929412 1
0.392157 0.584314 0.929412 1
0.392157 0.584314 0.929412 1
0.392157 0.584314 0.929412 1
0.392157 0.584314 0.929412 1
0.392157 0.584314 0.929412 1
0.392157 0.584314 0.929412 1
0.392157 0.584314 0.929412 1
0.392157 0.584314 0.929412 1
0.392157 0.584314 0.929412 1
0.392157 0.584314 0.929412 1
0.392157 0.584314 0.929412 1
0.392157 0.584314 0.929412 1
0.392157 0.584314 0.929412 1
0.392157 0.584314 0.929412 1
0.392157 0.584314 0.929412 1
0.392157 0.584314 0.929412 1
0.392157 0.584314 0.929412 1
0.392157 0.584314 0.929412 1
0.392157 0.584314 0.929412 1
0.392157 0.584314 0.929412 1
0.392157 0.584314 0.929412 1
0.392157 0.584314 0.929412 1
0.392157 0.584314 0.929412 1
0.392157 0.584314 0.929412 1
0.392157 0.584314 0.929412 1
0.392157 0.584314 0.929412 1
0.392157 0.584314 0.929412 1
0.392157 0.584314 0.929412 1
0.392157 0.584314 0.929412 1
0.392157 0.584314 0.929412 1
0.392157 0.584314 0.929412 1
0.392157 0.584314 0.929412 1
0.392157 0.584314 0.929412 1
0.392157 0.584314 0.929412 1
0.392157 0.584314 0.929412 1
0.392157 0.584314 0.929412 1
0.392157 0.584314 0.929412 1
0.392157 0.584314 0.929412 1
0.392157 0.584314 0.929412 1
0.392157 0.584314 0.929412 1
0.392157 0.584314 0.929412 1
0.392157 0.584314 0.929412 1
0.392157 0.584314 0.929412 1
0.392157 0.584314 0.929412 1
0.392157 0.584314 0.929412 1
0.392157 0.584314 0.929412 1
0.392157 0.584314 0.929412 1
0.392157 0.584314 0.929412 1
0.392157 0.584314 0.929412 1
0.392157 0.584314 0.929412 1
0.392157 0.584314 0.929412 1
0.392157 0.584314 0.929412 1
0.392157 0.584314 0.929412 1
0.392157 0.584314 0.929412 1
0.392157 0.584314 0.929412 1
0.392157 0.584314 0.929412 1
0.392157 0.584314 0.929412 1
0.392157 0.584314 0.929412 1
0.392157 0.584314 0.929412 1
0.392157 0.584314 0.929412 1
0.392157 0.584314 0.929412 1
0.392157 0.584314 0.929412 1
0.392157 0.584314 0.929412 1
0.392157 0.584314 0.929412 1
0.392157 0.584314 0.929412 1
0.392157 0.584314 0.929412 1
0.392157 0.584314 0.929412 1
0.392157 0.584314 0.929412 1
0.392157 0.584314 0.929412 1
0.392157 0.584314 0.929412 1
0.392157 0.584314 0.929412 1
0.392157 0.584314 0.929412 1
0.392157 0.584314 0.929412 1
0.392157 0.584314 0.929412 1
0.392157 0.584314 0.929412 1
0.392157 0.584314 0.929412 1
0.392157 0.584314 0.929412 1
0.392157 0.584314 0.929412 1
0.392157 0.584314 0.929412 1
0.392157 0.584314 0.929412 1
0.392157 0.584314 0.929412 1
0.392157 0.584314 0.929412 1
0.392157 0.584314 0.929412 1
0.392157 0.584314 0.929412 1
0.392157 0.584314 0.929412 1
0.392157 0.584314 0.929412 1
0.392157 0.584314 0.929412 1
0.392157 0.584314 0.929412 1
0.392157 0.584314 0.929412 1
0.392157 0.584314 0.929412 1
0.392157 0.584314 0.929412 1
0.392157 0.584314 0.929412 1
0.392157 0.584314 0.929412 1
0.392157 0.584314 0.929412 1
0.392157 0.584314 0.929412 1
0.392157 0.584314 0.929412 1
0.392157 0.584314 0.929412 1
0.392157 0.584314 0.929412 1
0.392157 0.584314 0.929412 1
0.392157 0.584314 0.929412 1
0.392157 0.584314 0.929412 1
0.392157 0.584314 0.929412 1
0.392157 0.584314 0.929412 1
0.392157 0.584314 0.929412 1
0.392157 0.584314 0.929412 1
0.392157 0.584314 0.929412 1
0.392157 0.584314 0.929412 1
0.392157 0.584314 0.929412 1
0.392157 0.584314 0.929412 1
0.392157 0.584314 0.929412 1
0.392157 0.584314 0.929412 1
0.392157 0.584314 0.929412 1
0.392157 0.584314 0.929412 1
0.392157 0.584314 0.929412 1
0.392157 0.584314 0.929412 1
0.392157 0.584314 0.929412 1
0.392157 0.584314 0.929412 1
0.392157 0.584314 0.929412 1
0.392157 0.584314 0.929412 1
0.392157 0.584314 0.929412 1
0.392157 0.584314 0.929412 1
0.392157 0.584314 0.929412 1
0.392157 0.584314 0.929412 1

