# vtk DataFile Version 3.0
Gocad TSurf to VTK
ASCII
DATASET POLYDATA
POINTS 411 float
21599589.141 4583073.625 -517.571
21601235.805 4582957.094 -628.428
21599750.063 4583541.703 178.978
21600886.547 4583368.766 187.400
21598945.133 4583687.742 218.201
21600232.359 4582576.156 -1757.173
21604109.555 4582261.500 -1384.614
21598539.445 4582465.297 -1972.781
21599181.844 4581039.883 -3189.279
21597651.336 4583656.813 -539.057
21597061.438 4583115.016 -1300.353
21596319.227 4584429.500 426.024
21596436.813 4582425.508 -2283.148
21595915.055 4583318.961 -1760.196
21597089.844 4580791.641 -3016.263
21595252.391 4582037.375 -2643.868
21598510.500 4579989.141 -3393.271
21597034.391 4578813.852 -3139.610
21599322.398 4579902.719 -3444.614
21599029.242 4579657.898 -3486.694
21599648.133 4580174.594 -3397.891
21599876.805 4580359.867 -3356.003
21599967.695 4580442.211 -3353.494
21600177.070 4580543.977 -3360.191
21600305.586 4580606.789 -3364.254
21600605.750 4580709.883 -3293.050
21601373.602 4581101.102 -3042.172
21601507.000 4581159.461 -2983.856
21601911.047 4581336.180 -2807.259
21601968.117 4581364.523 -2779.260
21602217.523 4581466.234 -2623.341
21603251.492 4581887.344 -1977.584
21603817.031 4582141.844 -1597.844
21604038.234 4582241.359 -1449.340
21598986.938 4579618.375 -3485.960
21598859.266 4579491.766 -3484.504
21598765.195 4579398.063 -3483.473
21598444.414 4579219.344 -3465.392
21598363.094 4579168.531 -3449.795
21597623.867 4578706.664 -3308.014
21597968.688 4577991.359 -3482.485
21598204.445 4577453.320 -3607.476
21598145.883 4577348.766 -3579.188
21598136.070 4577644.266 -3567.162
21598259.141 4577531.805 -3612.808
21598026.000 4577137.859 -3521.373
21597265.305 4576485.109 -3173.842
21597943.578 4576940.828 -3420.869
21595502.352 4577177.125 -2301.201
21594858.016 4577994.484 -2099.186
21596684.430 4575454.016 -2614.734
21596615.195 4575368.453 -2556.149
21597106.953 4575921.031 -2875.211
21597385.820 4576229.266 -3047.123
21597515.266 4576351.227 -3116.015
21597582.039 4576402.352 -3130.108
21597751.211 4576531.891 -3165.815
21597775.281 4576588.625 -3240.584
21597809.273 4576619.797 -3257.111
21597886.164 4576803.578 -3350.860
21597909.867 4576860.258 -3379.770
21597915.227 4576873.063 -3386.303
21596525.609 4575179.141 -2463.390
21596491.336 4575111.266 -2428.881
21596504.820 4575135.203 -2441.859
21595511.328 4575114.199 -1951.195
21596494.125 4574833.816 -2079.370
21593572.594 4576275.641 -1216.754
21593728.578 4576498.797 -1330.224
21593505.273 4576179.250 -1167.766
21593336.852 4576080.523 -980.981
21592844.352 4576530.141 -909.656
21593163.031 4575605.234 -956.600
21595230.742 4574351.563 -1255.256
21591500.523 4576221.094 -1099.152
21592992.484 4574895.715 -1042.348
21591288.977 4578077.078 -867.342
21593733.906 4577834.375 -1482.754
21590499.219 4577822.836 -855.054
21591200.000 4579150.000 -852.500
21590000.000 4577690.000 -1145.000
21591051.563 4575228.211 -2079.010
21590136.359 4578164.906 -772.410
21589750.000 4578042.500 -1156.250
21590225.000 4578422.500 -630.000
21590568.102 4578475.555 -583.658
21589950.000 4578735.000 -685.000
21590100.000 4578860.000 -465.000
21589650.000 4578515.000 -955.000
21589628.383 4578840.750 -804.924
21589250.000 4578720.000 -1208.750
21589400.000 4579340.000 -825.000
21589500.000 4578380.000 -1182.500
21589171.563 4578403.359 -1368.421
21589198.023 4577695.953 -1662.175
21589050.000 4578030.000 -1425.000
21588950.000 4578520.000 -1382.500
21588716.672 4577968.367 -1412.730
21588613.664 4577506.883 -1379.988
21588525.000 4578172.500 -1322.500
21588471.188 4576835.375 -960.453
21587905.313 4577779.828 -781.901
21589014.148 4576871.680 -1644.845
21588546.805 4575884.711 -1161.927
21589799.102 4575392.750 -1650.937
21590225.570 4573525.930 -1481.213
21588941.719 4573708.578 -729.705
21588451.180 4575208.258 -673.682
21590151.797 4572166.078 -928.020
21588223.313 4573423.531 51.459
21590186.836 4572173.164 -953.022
21590185.406 4572123.238 -933.528
21590289.672 4572198.273 -1020.410
21590754.031 4572311.793 -1324.767
21591400.266 4572072.406 -1599.588
21590770.172 4572315.734 -1335.342
21590965.328 4572363.445 -1463.254
21590989.172 4572369.305 -1478.891
21590999.773 4572371.910 -1485.847
21591008.070 4572373.945 -1491.288
21591107.141 4572398.289 -1556.269
21591131.969 4572404.391 -1572.551
21591159.594 4572413.313 -1587.703
21591524.898 4572462.367 -1768.262
21591529.344 4572462.965 -1770.458
21591534.500 4572463.656 -1773.009
21591552.086 4572466.000 -1781.695
21591910.570 4573395.348 -2211.683
21591578.820 4572467.633 -1797.708
21592534.063 4573581.449 -2395.744
21593088.922 4573350.852 -2346.550
21592959.602 4572969.336 -2519.221
21592916.820 4572929.016 -2506.512
21593008.781 4573102.465 -2457.984
21593021.281 4572880.602 -2537.120
21593064.867 4573254.680 -2388.005
21593518.148 4573172.469 -2308.495
21593120.375 4573503.988 -2271.487
21593122.414 4573770.422 -2071.296
21593009.156 4574256.555 -1551.476
21594291.148 4572599.730 -1917.782
21592965.414 4574444.469 -1350.469
21592919.820 4574626.094 -1151.798
21594520.094 4572558.961 -1617.189
21592901.359 4574699.660 -1071.315
21594582.648 4572546.500 -1532.132
21592992.492 4574895.637 -1042.355
21593818.117 4573703.992 -1053.097
21595865.266 4573881.922 -1278.973
21595799.656 4573123.500 -1025.138
21596343.992 4574285.395 -1632.542
21596164.156 4573773.195 -1279.745
21596364.953 4574338.586 -1665.457
21596494.453 4574667.188 -1868.798
21596094.281 4573577.801 -1147.234
21595998.188 4573456.164 -1150.374
21595958.359 4573383.145 -1123.191
21595479.906 4572600.383 -827.584
21595476.445 4572598.547 -826.701
21594906.383 4572405.742 -922.917
21594598.172 4572355.797 -1095.257
21594425.453 4572575.813 -1741.445
21594052.055 4572618.461 -2178.857
21593844.219 4572634.746 -2405.798
21593659.055 4572587.109 -2470.264
21593517.289 4572550.637 -2519.622
21593490.438 4572543.586 -2529.020
21593308.078 4572510.164 -2624.964
21593238.070 4572474.172 -2610.430
21592406.016 4572441.875 -2275.135
21592819.047 4572218.148 -2433.455
21592399.914 4572522.859 -2282.170
21592367.602 4572515.805 -2270.216
21591589.555 4572468.289 -1804.140
21592539.781 4571982.516 -2171.371
21592241.109 4571744.398 -1921.871
21592645.438 4572066.754 -2259.636
21592718.289 4572125.133 -2321.153
21592758.984 4572167.984 -2378.230
21592026.797 4571676.617 -1782.091
21592018.328 4571673.938 -1776.567
21591871.688 4571623.066 -1666.632
21591765.953 4571580.746 -1569.419
21591678.969 4571542.992 -1480.104
21591635.172 4571527.750 -1447.110
21591451.602 4571468.734 -1311.390
21591276.445 4571412.422 -1181.894
21591058.953 4571450.891 -1078.094
21590707.063 4571513.129 -910.153
21590687.219 4571506.758 -837.459
21590287.789 4571587.879 -713.868
21589979.711 4571644.133 -578.132
21589954.938 4572113.309 -805.335
21589618.594 4572034.289 -585.180
21589958.094 4572114.227 -807.150
21589982.055 4572121.430 -820.953
21589257.125 4572249.844 -429.987
21590026.203 4572134.801 -846.391
21590040.461 4572139.059 -854.598
21590049.117 4572141.672 -859.588
21590078.352 4572150.492 -876.428
21590093.500 4572155.180 -885.166
21590123.555 4572164.227 -902.477
21588992.898 4572447.090 -299.047
21589452.438 4572091.660 -525.826
21589615.094 4572033.816 -583.067
21589559.219 4572030.223 -551.382
21589616.195 4572033.883 -583.688
21589617.047 4572033.930 -584.172
21589618.227 4572034.105 -584.891
21589618.000 4572033.988 -584.709
21589527.242 4572028.164 -533.247
21588633.438 4572507.570 -104.940
21588616.805 4572510.922 -95.999
21587531.211 4574870.195 138.144
21587274.578 4576130.844 264.835
21587259.992 4576309.359 266.155
21587256.281 4576518.805 256.359
21587234.938 4576694.695 263.560
21587233.742 4576700.719 263.842
21587892.156 4576401.000 -314.324
21587230.000 4576709.398 264.402
21587454.578 4577316.297 -210.163
21587085.477 4577376.633 296.544
21587081.672 4577408.969 297.859
21587284.391 4577812.547 -34.273
21587041.539 4577469.461 302.826
21587645.594 4577867.172 -421.543
21587324.953 4578291.039 -494.253
21586743.938 4578520.930 78.555
21586645.883 4579032.750 -50.358
21587153.883 4579216.953 -970.390
21587725.000 4578670.000 -990.000
21586632.609 4579718.500 -751.848
21586997.516 4579738.273 -1072.974
21586500.906 4579480.641 -126.155
21586432.250 4580096.352 -682.253
21586659.734 4580143.469 -998.260
21586401.555 4579846.586 -200.685
21586148.063 4580216.242 -209.221
21586034.273 4580558.867 -210.108
21586445.344 4580489.563 -771.913
21586112.859 4580912.055 -218.674
21586124.688 4581247.367 -185.950
21586532.008 4580804.555 -799.893
21586236.563 4581363.938 -161.737
21586800.141 4580446.141 -1054.311
21586712.125 4580265.281 -1069.582
21586813.156 4581055.828 -817.734
21587215.758 4580133.164 -1201.453
21586265.391 4581531.008 -151.467
21586667.297 4581509.367 -480.044
21587291.523 4581160.859 -683.531
21586341.508 4581791.086 -143.047
21586406.109 4581897.266 -115.081
21586995.508 4581677.789 -365.438
21586582.063 4581922.094 -90.035
21587403.414 4581427.195 -538.533
21587546.438 4581182.883 -666.487
21587323.953 4581770.102 -315.489
21587702.047 4581649.648 -399.795
21586848.180 4582109.320 -60.268
21587037.469 4582080.961 -65.189
21586655.109 4582096.234 -69.998
21587247.563 4582084.891 -60.303
21587476.570 4582156.336 -37.087
21587912.945 4582014.703 -10.502
21588282.008 4581473.039 -561.524
21587799.742 4581297.359 -580.127
21588238.844 4582039.031 49.165
21588712.922 4581693.156 -570.152
21588675.000 4581285.000 -736.250
21588971.523 4582282.031 -690.472
21589102.313 4581675.125 -933.575
21588595.203 4582859.906 122.705
21589554.383 4583864.406 287.267
21589736.750 4583172.227 -1061.462
21589807.891 4582374.227 -1442.714
21590281.539 4584396.648 -998.120
21590512.797 4583275.203 -1733.148
21590674.609 4584398.891 382.269
21591457.781 4584679.609 -1079.485
21591549.406 4585054.906 389.072
21592494.313 4584655.383 -1484.036
21591877.891 4583831.430 -2283.043
21592142.094 4585159.094 584.032
21593477.438 4585377.484 -305.965
[...]
POINT_DATA 411
COLOR_SCALARS GocadColor 4
1 0.74902 0.792157 1
1 0.74902 0.792157 1
1 0.74902 0.792157 1
1 0.74902 0.792157 1
1 0.74902 0.792157 1
1 0.74902 0.792157 1
1 0.74902 0.792157 1
1 0.74902 0.792157 1
1 0.74902 0.792157 1
1 0.74902 0.792157 1
1 0.74902 0.792157 1
1 0.74902 0.792157 1
1 0.74902 0.792157 1
1 0.74902 0.792157 1
1 0.74902 0.792157 1
1 0.74902 0.792157 1
1 0.74902 0.792157 1
1 0.74902 0.792157 1
1 0.74902 0.792157 1
1 0.74902 0.792157 1
1 0.74902 0.792157 1
1 0.74902 0.792157 1
1 0.74902 0.792157 1
1 0.74902 0.792157 1
1 0.74902 0.792157 1
1 0.74902 0.792157 1
1 0.74902 0.792157 1
1 0.74902 0.792157 1
1 0.74902 0.792157 1
1 0.74902 0.792157 1
1 0.74902 0.792157 1
1 0.74902 0.792157 1
1 0.74902 0.792157 1
1 0.74902 0.792157 1
1 0.74902 0.792157 1
1 0.74902 0.792157 1
1 0.74902 0.792157 1
1 0.74902 0.792157 1
1 0.74902 0.792157 1
1 0.74902 0.792157 1
1 0.74902 0.792157 1
1 0.74902 0.792157 1
1 0.74902 0.792157 1
1 0.74902 0.792157 1
1 0.74902 0.792157 1
1 0.74902 0.792157 1
1 0.74902 0.792157 1
1 0.74902 0.792157 1
1 0.74902 0.792157 1
1 0.74902 0.792157 1
1 0.74902 0.792157 1
1 0.74902 0.792157 1
1 0.74902 0.792157 1
1 0.74902 0.792157 1
1 0.74902 0.792157 1
1 0.74902 0.792157 1
1 0.74902 0.792157 1
1 0.74902 0.792157 1
1 0.74902 0.792157 1
1 0.74902 0.792157 1
1 0.74902 0.792157 1
1 0.74902 0.792157 1
1 0.74902 0.792157 1
1 0.74902 0.792157 1
1 0.74902 0.792157 1
1 0.74902 0.792157 1
1 0.74902 0.792157 1
1 0.74902 0.792157 1
1 0.74902 0.792157 1
1 0.74902 0.792157 1
1 0.74902 0.792157 1
1 0.74902 0.792157 1
1 0.74902 0.792157 1
1 0.74902 0.792157 1
1 0.74902 0.792157 1
1 0.74902 0.792157 1
1 0.74902 0.792157 1
1 0.74902 0.792157 1
1 0.74902 0.792157 1
1 0.74902 0.792157 1
1 0.74902 0.792157 1
1 0.74902 0.792157 1
1 0.74902 0.792157 1
1 0.74902 0.792157 1
1 0.74902 0.792157 1
1 0.74902 0.792157 1
1 0.74902 0.792157 1
1 0.74902 0.792157 1
1 0.74902 0.792157 1
1 0.74902 0.792157 1
1 0.74902 0.792157 1
1 0.74902 0.792157 1
1 0.74902 0.792157 1
1 0.74902 0.792157 1
1 0.74902 0.792157 1
1 0.74902 0.792157 1
1 0.74902 0.792157 1
1 0.74902 0.792157 1
1 0.74902 0.792157 1
1 0.74902 0.792157 1
1 0.74902 0.792157 1
1 0.74902 0.792157 1
1 0.74902 0.792157 1
1 0.74902 0.792157 1
1 0.74902 0.792157 1
1 0.74902 0.792157 1
1 0.74902 0.792157 1
1 0.74902 0.792157 1
1 0.74902 0.792157 1
1 0.74902 0.792157 1
1 0.74902 0.792157 1
1 0.74902 0.792157 1
1 0.74902 0.792157 1
1 0.74902 0.792157 1
1 0.74902 0.792157 1
1 0.74902 0.792157 1
1 0.74902 0.792157 1
1 0.74902 0.792157 1
1 0.74902 0.792157 1
1 0.74902 0.792157 1
1 0.74902 0.792157 1
1 0.74902 0.792157 1
1 0.74902 0.792157 1
1 0.74902 0.792157 1
1 0.74902 0.792157 1
1 0.74902 0.792157 1
1 0.74902 0.792157 1
1 0.74902 0.792157 1
1 0.74902 0.792157 1
1 0.74902 0.792157 1
1 0.74902 0.792157 1
1 0.74902 0.792157 1
1 0.74902 0.792157 1
1 0.74902 0.792157 1
1 0.74902 0.792157 1
1 0.74902 0.792157 1
1 0.74902 0.792157 1
1 0.74902 0.792157 1
1 0.74902 0.792157 1
1 0.74902 0.792157 1
1 0.74902 0.792157 1
1 0.74902 0.792157 1
1 0.74902 0.792157 1
1 0.74902 0.792157 1
1 0.74902 0.792157 1
1 0.74902 0.792157 1
1 0.74902 0.792157 1
1 0.74902 0.792157 1
1 0.74902 0.792157 1
1 0.74902 0.792157 1
1 0.74902 0.792157 1
1 0.74902 0.792157 1
1 0.74902 0.792157 1
1 0.74902 0.792157 1
1 0.74902 0.792157 1
1 0.74902 0.792157 1
1 0.74902 0.792157 1
1 0.74902 0.792157 1
1 0.74902 0.792157 1
1 0.74902 0.792157 1
1 0.74902 0.792157 1
1 0.74902 0.792157 1
1 0.74902 0.792157 1
1 0.74902 0.792157 1
1 0.74902 0.792157 1
1 0.74902 0.792157 1
1 0.74902 0.792157 1
1 0.74902 0.792157 1
1 0.74902 0.792157 1
1 0.74902 0.792157 1
1 0.74902 0.792157 1
1 0.74902 0.792157 1
1 0.74902 0.792157 1
1 0.74902 0.792157 1
1 0.74902 0.792157 1
1 0.74902 0.792157 1
1 0.74902 0.792157 1
1 0.74902 0.792157 1
1 0.74902 0.792157 1
1 0.74902 0.792157 1
1 0.74902 0.792157 1
1 0.74902 0.792157 1
1 0.74902 0.792157 1
1 0.74902 0.792157 1
1 0.74902 0.792157 1
1 0.74902 0.792157 1
1 0.74902 0.792157 1
1 0.74902 0.792157 1
1 0.74902 0.792157 1
1 0.74902 0.792157 1
1 0.74902 0.792157 1
1 0.74902 0.792157 1
1 0.74902 0.792157 1
1 0.74902 0.792157 1
1 0.74902 0.792157 1
1 0.74902 0.792157 1
1 0.74902 0.792157 1
1 0.74902 0.792157 1
1 0.74902 0.792157 1
1 0.74902 0.792157 1
1 0.74902 0.792157 1
1 0.74902 0.792157 1
1 0.74902 0.792157 1
1 0.74902 0.792157 1
1 0.74902 0.792157 1
1 0.74902 0.792157 1
1 0.74902 0.792157 1
1 0.74902 0.792157 1
1 0.74902 0.792157 1
1 0.74902 0.792157 1
1 0.74902 0.792157 1
1 0.74902 0.792157 1
1 0.74902 0.792157 1
1 0.74902 0.792157 1
1 0.74902 0.792157 1
1 0.74902 0.792157 1
1 0.74902 0.792157 1
1 0.74902 0.792157 1
1 0.74902 0.792157 1
1 0.74902 0.792157 1
1 0.74902 0.792157 1
1 0.74902 0.792157 1
1 0.74902 0.792157 1
1 0.74902 0.792157 1
1 0.74902 0.792157 1
1 0.74902 0.792157 1
1 0.74902 0.792157 1
1 0.74902 0.792157 1
1 0.74902 0.792157 1
1 0.74902 0.792157 1
1 0.74902 0.792157 1
1 0.74902 0.792157 1
1 0.74902 0.792157 1
1 0.74902 0.792157 1
1 0.74902 0.792157 1
1 0.74902 0.792157 1
1 0.74902 0.792157 1
1 0.74902 0.792157 1
1 0.74902 0.792157 1
1 0.74902 0.792157 1
1 0.74902 0.792157 1
1 0.74902 0.792157 1
1 0.74902 0.792157 1
1 0.74902 0.792157 1
1 0.74902 0.792157 1
1 0.74902 0.792157 1
1 0.74902 0.792157 1
1 0.74902 0.792157 1
1 0.74902 0.792157 1
1 0.74902 0.792157 1
1 0.74902 0.792157 1
1 0.74902 0.792157 1
1 0.74902 0.792157 1
1 0.74902 0.792157 1
1 0.74902 0.792157 1
1 0.74902 0.792157 1
1 0.74902 0.792157 1
1 0.74902 0.792157 1
1 0.74902 0.792157 1
1 0.74902 0.792157 1
1 0.74902 0.792157 1
1 0.74902 0.792157 1
1 0.74902 0.792157 1
1 0.74902 0.792157 1
1 0.74902 0.792157 1
1 0.74902 0.792157 1
1 0.74902 0.792157 1
1 0.74902 0.792157 1
1 0.74902 0.792157 1
1 0.74902 0.792157 1
1 0.74902 0.792157 1
1 0.74902 0.792157 1
1 0.74902 0.792157 1
1 0.74902 0.792157 1
1 0.74902 0.792157 1
1 0.74902 0.792157 1
1 0.74902 0.792157 1
1 0.74902 0.792157 1
1 0.74902 0.792157 1
1 0.74902 0.792157 1
1 0.74902 0.792157 1
1 0.74902 0.792157 1
1 0.74902 0.792157 1
1 0.74902 0.792157 1
1 0.74902 0.792157 1
1 0.74902 0.792157 1
1 0.74902 0.792157 1
1 0.74902 0.792157 1
1 0.74902 0.792157 1
1 0.74902 0.792157 1
1 0.74902 0.792157 1
1 0.74902 0.792157 1
1 0.74902 0.792157 1
1 0.74902 0.792157 1
1 0.74902 0.792157 1
1 0.74902 0.792157 1
1 0.74902 0.792157 1
1 0.74902 0.792157 1
1 0.74902 0.792157 1
1 0.74902 0.792157 1
1 0.74902 0.792157 1
1 0.74902 0.792157 1
1 0.74902 0.792157 1
1 0.74902 0.792157 1
1 0.74902 0.792157 1
1 0.74902 0.792157 1
1 0.74902 0.792157 1
1 0.74902 0.792157 1
1 0.74902 0.792157 1
1 0.74902 0.792157 1
1 0.74902 0.792157 1
1 0.74902 0.792157 1
1 0.74902 0.792157 1
1 0.74902 0.792157 1
1 0.74902 0.792157 1
1 0.74902 0.792157 1
1 0.74902 0.792157 1
1 0.74902 0.792157 1
1 0.74902 0.792157 1
1 0.74902 0.792157 1
1 0.74902 0.792157 1
1 0.74902 0.792157 1
1 0.74902 0.792157 1
1 0.74902 0.792157 1
1 0.74902 0.792157 1
1 0.74902 0.792157 1
1 0.74902 0.792157 1
1 0.74902 0.792157 1
1 0.74902 0.792157 1
1 0.74902 0.792157 1
1 0.74902 0.792157 1
1 0.74902 0.792157 1
1 0.74902 0.792157 1
1 0.74902 0.792157 1
1 0.74902 0.792157 1
1 0.74902 0.792157 1
1 0.74902 0.792157 1
1 0.74902 0.792157 1
1 0.74902 0.792157 1
1 0.74902 0.792157 1
1 0.74902 0.792157 1
1 0.74902 0.792157 1
1 0.74902 0.792157 1
1 0.74902 0.792157 1
1 0.74902 0.792157 1
1 0.74902 0.792157 1
1 0.74902 0.792157 1
1 0.74902 0.792157 1
1 0.74902 0.792157 1
1 0.74902 0.792157 1
1 0.74902 0.792157 1
1 0.74902 0.792157 1
1 0.74902 0.792157 1
1 0.74902 0.792157 1
1 0.74902 0.792157 1
1 0.74902 0.792157 1
1 0.74902 0.792157 1
1 0.74902 0.792157 1
1 0.74902 0.792157 1
1 0.74902 0.792157 1
1 0.74902 0.792157 1
1 0.74902 0.792157 1
1 0.74902 0.792157 1
1 0.74902 0.792157 1
1 0.74902 0.792157 1
1 0.74902 0.792157 1
1 0.74902 0.792157 1
1 0.74902 0.792157 1
1 0.74902 0.792157 1
1 0.74902 0.792157 1
1 0.74902 0.792157 1
1 0.74902 0.792157 1
1 0.74902 0.792157 1
1 0.74902 0.792157 1
1 0.74902 0.792157 1
1 0.74902 0.792157 1
1 0.74902 0.792157 1
1 0.74902 0.792157 1
1 0.74902 0.792157 1
1 0.74902 0.792157 1
1 0.74902 0.792157 1
1 0.74902 0.792157 1
1 0.74902 0.792157 1
1 0.74902 0.792157 1
1 0.74902 0.792157 1
1 0.74902 0.792157 1
1 0.74902 0.792157 1
1 0.74902 0.792157 1
1 0.74902 0.792157 1
1 0.74902 0.792157 1
1 0.74902 0.792157 1
1 0.74902 0.792157 1
1 0.74902 0.792157 1
1 0.74902 0.792157 1
1 0.74902 0.792157 1
1 0.74902 0.792157 1
1 0.74902 0.792157 1
1 0.74902 0.792157 1
1 0.74902 0.792157 1
1 0.74902 0.792157 1
1 0.74902 0.792157 1
1 0.74902 0.792157 1
1 0.74902 0.792157 1
1 0.74902 0.792157 1
1 0.74902 0.792157 1
1 0.74902 0.792157 1
1 0.74902 0.792157 1
1 0.74902 0.792157 1
1 0.74902 0.792157 1
1 0.74902 0.792157 1
1 0.74902 0.792157 1

