# vtk DataFile Version 3.0
Gocad TSurf to VTK
ASCII
DATASET POLYDATA
POINTS 479 float
21593069.820 4578775.609 289.515
21593233.352 4579089.859 -39.871
21593027.313 4579036.820 293.320
21592996.602 4579436.844 300.847
21593073.258 4578765.469 289.456
21593172.906 4578508.594 272.523
21594141.086 4579218.641 -947.924
21593203.250 4578451.570 269.143
21594031.391 4579505.789 -988.671
21594191.266 4579615.344 -1110.406
21593700.000 4579665.000 -677.500
21593200.000 4579722.500 -137.500
21593950.000 4579825.000 -927.500
21593825.000 4580162.500 -846.250
21594200.000 4580060.000 -1160.000
21594663.320 4580002.180 -1426.655
21593950.000 4580280.000 -962.500
21594450.000 4580692.500 -1210.000
21593700.000 4580500.000 -765.000
21593450.000 4579922.500 -471.250
21594200.000 4580920.000 -1045.000
21593525.000 4580892.500 -776.250
21594500.000 4581130.000 -1060.000
21594116.109 4581316.984 -1022.938
21594775.000 4580942.500 -1225.000
21594850.000 4580570.000 -1382.500
21594800.000 4581340.000 -925.000
21595000.000 4581100.000 -1123.750
21594336.992 4581519.164 -1002.143
21594575.000 4581682.500 -866.250
21594007.742 4581739.813 -1004.777
21594020.203 4582170.016 -918.426
21593763.430 4581595.539 -938.110
21593598.297 4582022.703 -970.015
21593570.617 4581344.516 -841.083
21593323.352 4581832.898 -835.003
21593250.000 4581185.000 -545.000
21592900.000 4581447.500 -310.000
21593000.000 4581025.000 -295.000
21593100.000 4580602.500 -280.000
21592850.000 4580935.000 57.500
21593200.000 4580180.000 -265.000
21592857.898 4580309.992 320.631
21592843.078 4580363.875 322.640
21592918.063 4580056.680 310.981
21592947.586 4579924.477 309.451
21592957.156 4579859.609 308.457
21592979.539 4579553.172 302.634
21592813.492 4580478.375 326.951
21592739.188 4580756.922 341.906
21592727.133 4580805.828 344.554
21592606.594 4581138.883 361.744
21592588.734 4581224.563 366.453
21592675.000 4581312.500 218.750
21592568.094 4581345.078 373.175
21592800.000 4581870.000 -325.000
21592545.523 4581498.617 376.120
21592496.383 4581673.563 380.413
21592410.180 4582146.922 -399.008
21592441.758 4581705.359 383.024
21593002.438 4582350.008 -848.691
21592817.914 4582674.797 -865.880
21593102.602 4582684.602 -907.552
21592385.250 4582821.063 -765.280
21592643.930 4583021.438 -769.885
21591760.664 4582496.992 -401.607
21592034.688 4582955.273 -695.744
21592125.000 4581930.000 207.500
21592325.867 4581749.469 388.253
21591355.305 4582334.531 68.347
21592069.867 4581865.578 393.271
21591492.141 4582632.875 -381.842
21591053.438 4582751.906 -130.484
21591677.711 4583035.875 -631.088
21591406.805 4582922.328 -466.968
21591682.422 4583182.914 -603.439
21591979.945 4583295.609 -563.712
21591613.203 4583108.969 -604.427
21591400.852 4583105.500 -510.549
21591473.813 4583053.281 -557.966
21591178.438 4583047.648 -316.765
21591221.258 4583334.688 -211.187
21590994.438 4582947.500 -80.716
21590659.047 4582552.703 442.605
21590648.703 4582590.156 450.818
21591104.086 4582269.891 399.880
21591185.609 4582209.789 390.113
21591446.984 4582108.469 380.162
21591505.234 4582083.578 381.772
21591868.305 4581954.289 392.916
21591907.266 4581936.680 393.951
21590647.492 4582662.438 467.649
21590651.742 4582804.102 489.066
21590657.273 4583045.648 525.273
21590662.352 4583104.977 534.838
21590864.031 4583299.641 250.272
21590688.672 4583346.727 574.824
21591100.609 4583384.828 19.898
21590803.883 4583609.492 584.806
21591350.000 4583642.500 141.250
21590955.219 4583747.500 611.391
21591600.000 4583565.000 -97.500
21591750.000 4583695.000 77.500
21591850.000 4583487.500 -336.250
21592000.000 4583622.500 -137.500
21591657.539 4583339.547 -502.245
21592195.070 4583499.219 -301.981
21592700.000 4583375.000 -398.750
21592275.000 4583757.500 322.500
21592600.000 4583740.000 275.000
21591950.000 4583775.000 370.000
21592060.367 4583864.813 682.604
21591535.852 4583812.648 425.482
21591721.992 4583888.773 688.256
21591157.219 4583852.070 623.700
21591324.258 4583882.516 643.852
21591542.258 4583919.383 666.576
21591698.406 4583894.273 688.728
21591728.031 4583888.453 688.157
21592044.805 4583865.063 682.846
21592367.203 4583842.789 677.472
21592390.813 4583842.266 677.101
21592690.250 4583821.227 672.102
21592967.492 4583574.727 433.000
21592896.648 4583484.820 71.934
21592742.047 4583789.875 670.675
21592949.438 4583718.828 666.068
21593000.719 4583700.523 663.690
21593027.445 4583691.148 662.718
21593134.203 4583654.906 660.904
21593450.000 4583385.000 202.500
21593163.945 4583649.602 660.192
21593545.813 4583515.172 653.913
21593600.000 4583495.000 650.000
21593900.000 4583230.000 276.250
21594050.000 4583327.500 617.500
21594118.781 4583055.156 88.450
21593250.000 4583235.000 -195.000
21594500.000 4583160.000 585.000
21594800.000 4582875.000 405.000
21594875.000 4582945.000 600.000
21594650.000 4582777.500 63.750
21595100.000 4582590.000 225.000
21593788.992 4582714.438 -663.185
21594125.000 4582367.500 -748.750
21593685.461 4582552.484 -908.122
21594800.000 4582390.000 -237.500
21594600.000 4582240.000 -627.500
21595000.000 4582525.000 -2.500
21595400.000 4582305.000 45.000
21595625.000 4582515.000 630.000
21596000.000 4582300.000 645.000
21595250.000 4582730.000 615.000
21595700.000 4582020.000 -135.000
21596275.000 4582145.000 453.750
21594950.000 4581995.000 -608.750
21595300.000 4581750.000 -590.000
21594350.000 4582035.000 -795.000
21595475.000 4581502.500 -868.750
21595650.000 4581652.500 -700.000
21595850.000 4581425.000 -992.500
21595950.000 4581855.000 -358.750
21596000.000 4581555.000 -810.000
21596050.000 4581935.000 -131.250
21596400.000 4581850.000 -127.500
21596550.000 4581990.000 262.500
21596650.000 4582070.000 615.000
21596975.000 4581955.000 600.000
21596325.000 4582185.000 630.000
21596750.000 4581765.000 -123.750
21597072.078 4581920.648 595.520
21597155.844 4581885.930 577.826
21597284.750 4581837.922 565.346
21597325.000 4581617.500 56.250
21597150.000 4581477.500 -303.750
21597301.008 4581831.031 563.685
21597463.242 4581728.094 543.542
21597550.000 4581555.000 232.500
21597475.000 4581252.500 -341.250
21597484.383 4581714.680 540.917
21597632.281 4581620.828 522.552
21597763.563 4581537.523 506.252
21597880.875 4581463.094 491.686
21597600.000 4581110.000 -415.000
21597958.102 4581396.484 480.261
21598005.891 4581384.617 476.253
21598050.000 4581045.000 -337.500
21597875.000 4580855.000 -686.250
21598105.883 4581359.781 467.867
21598228.500 4581335.336 472.383
21598350.000 4581285.000 412.500
21598500.000 4580980.000 -260.000
21598363.375 4581305.063 477.360
21598697.414 4581230.078 489.687
21598750.000 4581215.000 482.500
21598700.000 4581140.000 240.000
21599125.000 4581107.500 431.250
21598950.000 4580915.000 -182.500
21598150.000 4580600.000 -957.500
21599050.000 4580995.000 67.500
21599400.000 4580850.000 -105.000
21599500.000 4581000.000 380.000
21599875.000 4580970.000 -2.500
21600467.258 4580906.500 -558.137
21599950.000 4581082.500 361.250
21600825.000 4581210.000 202.500
21600109.375 4581111.719 354.609
21600505.563 4581172.680 294.727
21600538.469 4581179.664 296.886
21600848.656 4581245.484 317.230
21600881.086 4581249.516 319.219
21601337.508 4581279.156 252.707
21601137.742 4580712.609 -1167.229
21601931.773 4580923.000 -306.237
21602207.352 4581023.234 -62.279
21601375.000 4580482.500 -1510.000
21601001.078 4580278.398 -2013.892
21601675.813 4580370.680 -1588.419
21601854.570 4580399.961 -1435.588
21601202.727 4580267.727 -1953.780
21601144.164 4580259.883 -1990.420
21601038.891 4580229.469 -2026.116
21601023.805 4580222.289 -2026.018
21600982.594 4580222.898 -2063.137
21600749.211 4580328.117 -1909.929
21600889.227 4580186.484 -2077.334
21600725.109 4580163.680 -2178.513
21600675.156 4580156.766 -2209.277
21600554.297 4580115.430 -2238.258
21600306.500 4580253.000 -1869.000
21600368.391 4580670.156 -1334.944
21600277.859 4579985.523 -2239.133
21600134.938 4579965.617 -2326.967
21599750.000 4579902.500 -2576.250
21599650.000 4580260.000 -1895.000
21599841.609 4579859.320 -2594.794
21599741.047 4579786.453 -2627.343
21599449.945 4579575.602 -2721.539
21599150.000 4579680.000 -2320.000
21599348.703 4579938.539 -2203.691
21599298.609 4579450.156 -2744.804
21599261.070 4579417.867 -2752.071
21599234.273 4579399.406 -2764.428
21598950.000 4579500.000 -2472.500
21598475.000 4579427.500 -2176.250
21599177.477 4579344.430 -2765.876
21598650.000 4579125.000 -2547.500
21599001.391 4579173.969 -2770.368
21598985.438 4579158.477 -2770.813
21598727.031 4578991.852 -2710.909
21598376.609 4578801.258 -2700.453
21598350.000 4578800.000 -2687.500
21598025.000 4578940.000 -2386.250
21598321.656 4578764.922 -2685.906
21598146.180 4578642.469 -2626.613
21598078.727 4578595.398 -2603.818
21597950.000 4578305.000 -2665.000
21597625.000 4578482.500 -2352.500
21598086.602 4578562.320 -2626.613
21598102.828 4578494.125 -2673.597
21598129.891 4578411.391 -2717.169
21598181.711 4578317.734 -2727.896
21597600.000 4577900.000 -2575.000
21597450.000 4578280.000 -2307.500
21598286.016 4578120.883 -2758.835
21598513.078 4577750.305 -2761.137
21598557.555 4577714.961 -2766.503
21598563.563 4577710.336 -2766.913
21598151.438 4577149.891 -2538.092
21597708.977 4577116.141 -2446.796
21598565.570 4577709.156 -2766.287
21598519.367 4576842.336 -2382.918
21598259.156 4576562.367 -2175.530
21598532.438 4576840.672 -2377.886
21598529.305 4576826.727 -2366.528
21598727.492 4577183.828 -2471.944
21598570.203 4577706.945 -2763.759
21598818.836 4577344.531 -2515.992
21598595.594 4577693.148 -2753.428
21598862.688 4577471.641 -2595.493
21598883.063 4577530.703 -2632.438
21598884.805 4577535.750 -2635.592
21598487.828 4576592.656 -2158.375
21598463.063 4576452.922 -2034.114
21598452.273 4576349.078 -1929.797
21598450.992 4576336.719 -1917.380
21598435.531 4576244.039 -1833.437
21597895.313 4576083.102 -1807.981
21598249.500 4576042.445 -1686.567
21597293.414 4575589.281 -1441.024
21597871.750 4575756.430 -1612.694
21597665.242 4575536.828 -1457.259
[...]
POINT_DATA 479
COLOR_SCALARS GocadColor 4
0.819608 0.701961 0.54902 1
0.819608 0.701961 0.54902 1
0.819608 0.701961 0.54902 1
0.819608 0.701961 0.54902 1
0.819608 0.701961 0.54902 1
0.819608 0.701961 0.54902 1
0.819608 0.701961 0.54902 1
0.819608 0.701961 0.54902 1
0.819608 0.701961 0.54902 1
0.819608 0.701961 0.54902 1
0.819608 0.701961 0.54902 1
0.819608 0.701961 0.54902 1
0.819608 0.701961 0.54902 1
0.819608 0.701961 0.54902 1
0.819608 0.701961 0.54902 1
0.819608 0.701961 0.54902 1
0.819608 0.701961 0.54902 1
0.819608 0.701961 0.54902 1
0.819608 0.701961 0.54902 1
0.819608 0.701961 0.54902 1
0.819608 0.701961 0.54902 1
0.819608 0.701961 0.54902 1
0.819608 0.701961 0.54902 1
0.819608 0.701961 0.54902 1
0.819608 0.701961 0.54902 1
0.819608 0.701961 0.54902 1
0.819608 0.701961 0.54902 1
0.819608 0.701961 0.54902 1
0.819608 0.701961 0.54902 1
0.819608 0.701961 0.54902 1
0.819608 0.701961 0.54902 1
0.819608 0.701961 0.54902 1
0.819608 0.701961 0.54902 1
0.819608 0.701961 0.54902 1
0.819608 0.701961 0.54902 1
0.819608 0.701961 0.54902 1
0.819608 0.701961 0.54902 1
0.819608 0.701961 0.54902 1
0.819608 0.701961 0.54902 1
0.819608 0.701961 0.54902 1
0.819608 0.701961 0.54902 1
0.819608 0.701961 0.54902 1
0.819608 0.701961 0.54902 1
0.819608 0.701961 0.54902 1
0.819608 0.701961 0.54902 1
0.819608 0.701961 0.54902 1
0.819608 0.701961 0.54902 1
0.819608 0.701961 0.54902 1
0.819608 0.701961 0.54902 1
0.819608 0.701961 0.54902 1
0.819608 0.701961 0.54902 1
0.819608 0.701961 0.54902 1
0.819608 0.701961 0.54902 1
0.819608 0.701961 0.54902 1
0.819608 0.701961 0.54902 1
0.819608 0.701961 0.54902 1
0.819608 0.701961 0.54902 1
0.819608 0.701961 0.54902 1
0.819608 0.701961 0.54902 1
0.819608 0.701961 0.54902 1
0.819608 0.701961 0.54902 1
0.819608 0.701961 0.54902 1
0.819608 0.701961 0.54902 1
0.819608 0.701961 0.54902 1
0.819608 0.701961 0.54902 1
0.819608 0.701961 0.54902 1
0.819608 0.701961 0.54902 1
0.819608 0.701961 0.54902 1
0.819608 0.701961 0.54902 1
0.819608 0.701961 0.54902 1
0.819608 0.701961 0.54902 1
0.819608 0.701961 0.54902 1
0.819608 0.701961 0.54902 1
0.819608 0.701961 0.54902 1
0.819608 0.701961 0.54902 1
0.819608 0.701961 0.54902 1
0.819608 0.701961 0.54902 1
0.819608 0.701961 0.54902 1
0.819608 0.701961 0.54902 1
0.819608 0.701961 0.54902 1
0.819608 0.701961 0.54902 1
0.819608 0.701961 0.54902 1
0.819608 0.701961 0.54902 1
0.819608 0.701961 0.54902 1
0.819608 0.701961 0.54902 1
0.819608 0.701961 0.54902 1
0.819608 0.701961 0.54902 1
0.819608 0.701961 0.54902 1
0.819608 0.701961 0.54902 1
0.819608 0.701961 0.54902 1
0.819608 0.701961 0.54902 1
0.819608 0.701961 0.54902 1
0.819608 0.701961 0.54902 1
0.819608 0.701961 0.54902 1
0.819608 0.701961 0.54902 1
0.819608 0.701961 0.54902 1
0.819608 0.701961 0.54902 1
0.819608 0.701961 0.54902 1
0.819608 0.701961 0.54902 1
0.819608 0.701961 0.54902 1
0.819608 0.701961 0.54902 1
0.819608 0.701961 0.54902 1
0.819608 0.701961 0.54902 1
0.819608 0.701961 0.54902 1
0.819608 0.701961 0.54902 1
0.819608 0.701961 0.54902 1
0.819608 0.701961 0.54902 1
0.819608 0.701961 0.54902 1
0.819608 0.701961 0.54902 1
0.819608 0.701961 0.54902 1
0.819608 0.701961 0.54902 1
0.819608 0.701961 0.54902 1
0.819608 0.701961 0.54902 1
0.819608 0.701961 0.54902 1
0.819608 0.701961 0.54902 1
0.819608 0.701961 0.54902 1
0.819608 0.701961 0.54902 1
0.819608 0.701961 0.54902 1
0.819608 0.701961 0.54902 1
0.819608 0.701961 0.54902 1
0.819608 0.701961 0.54902 1
0.819608 0.701961 0.54902 1
0.819608 0.701961 0.54902 1
0.819608 0.701961 0.54902 1
0.819608 0.701961 0.54902 1
0.819608 0.701961 0.54902 1
0.819608 0.701961 0.54902 1
0.819608 0.701961 0.54902 1
0.819608 0.701961 0.54902 1
0.819608 0.701961 0.54902 1
0.819608 0.701961 0.54902 1
0.819608 0.701961 0.54902 1
0.819608 0.701961 0.54902 1
0.819608 0.701961 0.54902 1
0.819608 0.701961 0.54902 1
0.819608 0.701961 0.54902 1
0.819608 0.701961 0.54902 1
0.819608 0.701961 0.54902 1
0.819608 0.701961 0.54902 1
0.819608 0.701961 0.54902 1
0.819608 0.701961 0.54902 1
0.819608 0.701961 0.54902 1
0.819608 0.701961 0.54902 1
0.819608 0.701961 0.54902 1
0.819608 0.701961 0.54902 1
0.819608 0.701961 0.54902 1
0.819608 0.701961 0.54902 1
0.819608 0.701961 0.54902 1
0.819608 0.701961 0.54902 1
0.819608 0.701961 0.54902 1
0.819608 0.701961 0.54902 1
0.819608 0.701961 0.54902 1
0.819608 0.701961 0.54902 1
0.819608 0.701961 0.54902 1
0.819608 0.701961 0.54902 1
0.819608 0.701961 0.54902 1
0.819608 0.701961 0.54902 1
0.819608 0.701961 0.54902 1
0.819608 0.701961 0.54902 1
0.819608 0.701961 0.54902 1
0.819608 0.701961 0.54902 1
0.819608 0.701961 0.54902 1
0.819608 0.701961 0.54902 1
0.819608 0.701961 0.54902 1
0.819608 0.701961 0.54902 1
0.819608 0.701961 0.54902 1
0.819608 0.701961 0.54902 1
0.819608 0.701961 0.54902 1
0.819608 0.701961 0.54902 1
0.819608 0.701961 0.54902 1
0.819608 0.701961 0.54902 1
0.819608 0.701961 0.54902 1
0.819608 0.701961 0.54902 1
0.819608 0.701961 0.54902 1
0.819608 0.701961 0.54902 1
0.819608 0.701961 0.54902 1
0.819608 0.701961 0.54902 1
0.819608 0.701961 0.54902 1
0.819608 0.701961 0.54902 1
0.819608 0.701961 0.54902 1
0.819608 0.701961 0.54902 1
0.819608 0.701961 0.54902 1
0.819608 0.701961 0.54902 1
0.819608 0.701961 0.54902 1
0.819608 0.701961 0.54902 1
0.819608 0.701961 0.54902 1
0.819608 0.701961 0.54902 1
0.819608 0.701961 0.54902 1
0.819608 0.701961 0.54902 1
0.819608 0.701961 0.54902 1
0.819608 0.701961 0.54902 1
0.819608 0.701961 0.54902 1
0.819608 0.701961 0.54902 1
0.819608 0.701961 0.54902 1
0.819608 0.701961 0.54902 1
0.819608 0.701961 0.54902 1
0.819608 0.701961 0.54902 1
0.819608 0.701961 0.54902 1
0.819608 0.701961 0.54902 1
0.819608 0.701961 0.54902 1
0.819608 0.701961 0.54902 1
0.819608 0.701961 0.54902 1
0.819608 0.701961 0.54902 1
0.819608 0.701961 0.54902 1
0.819608 0.701961 0.54902 1
0.819608 0.701961 0.54902 1
0.819608 0.701961 0.54902 1
0.819608 0.701961 0.54902 1
0.819608 0.701961 0.54902 1
0.819608 0.701961 0.54902 1
0.819608 0.701961 0.54902 1
0.819608 0.701961 0.54902 1
0.819608 0.701961 0.54902 1
0.819608 0.701961 0.54902 1
0.819608 0.701961 0.54902 1
0.819608 0.701961 0.54902 1
0.819608 0.701961 0.54902 1
0.819608 0.701961 0.54902 1
0.819608 0.701961 0.54902 1
0.819608 0.701961 0.54902 1
0.819608 0.701961 0.54902 1
0.819608 0.701961 0.54902 1
0.819608 0.701961 0.54902 1
0.819608 0.701961 0.54902 1
0.819608 0.701961 0.54902 1
0.819608 0.701961 0.54902 1
0.819608 0.701961 0.54902 1
0.819608 0.701961 0.54902 1
0.819608 0.701961 0.54902 1
0.819608 0.701961 0.54902 1
0.819608 0.701961 0.54902 1
0.819608 0.701961 0.54902 1
0.819608 0.701961 0.54902 1
0.819608 0.701961 0.54902 1
0.819608 0.701961 0.54902 1
0.819608 0.701961 0.54902 1
0.819608 0.701961 0.54902 1
0.819608 0.701961 0.54902 1
0.819608 0.701961 0.54902 1
0.819608 0.701961 0.54902 1
0.819608 0.701961 0.54902 1
0.819608 0.701961 0.54902 1
0.819608 0.701961 0.54902 1
0.819608 0.701961 0.54902 1
0.819608 0.701961 0.54902 1
0.819608 0.701961 0.54902 1
0.819608 0.701961 0.54902 1
0.819608 0.701961 0.54902 1
0.819608 0.701961 0.54902 1
0.819608 0.701961 0.54902 1
0.819608 0.701961 0.54902 1
0.819608 0.701961 0.54902 1
0.819608 0.701961 0.54902 1
0.819608 0.701961 0.54902 1
0.819608 0.701961 0.54902 1
0.819608 0.701961 0.54902 1
0.819608 0.701961 0.54902 1
0.819608 0.701961 0.54902 1
0.819608 0.701961 0.54902 1
0.819608 0.701961 0.54902 1
0.819608 0.701961 0.54902 1
0.819608 0.701961 0.54902 1
0.819608 0.701961 0.54902 1
0.819608 0.701961 0.54902 1
0.819608 0.701961 0.54902 1
0.819608 0.701961 0.54902 1
0.819608 0.701961 0.54902 1
0.819608 0.701961 0.54902 1
0.819608 0.701961 0.54902 1
0.819608 0.701961 0.54902 1
0.819608 0.701961 0.54902 1
0.819608 0.701961 0.54902 1
0.819608 0.701961 0.54902 1
0.819608 0.701961 0.54902 1
0.819608 0.701961 0.54902 1
0.819608 0.701961 0.54902 1
0.819608 0.701961 0.54902 1
0.819608 0.701961 0.54902 1
0.819608 0.701961 0.54902 1
0.819608 0.701961 0.54902 1
0.819608 0.701961 0.54902 1
0.819608 0.701961 0.54902 1
0.819608 0.701961 0.54902 1
0.819608 0.701961 0.54902 1
0.819608 0.701961 0.54902 1
0.819608 0.701961 0.54902 1
0.819608 0.701961 0.54902 1
0.819608 0.701961 0.54902 1
0.819608 0.701961 0.54902 1
0.819608 0.701961 0.54902 1
0.819608 0.701961 0.54902 1
0.819608 0.701961 0.54902 1
0.819608 0.701961 0.54902 1
0.819608 0.701961 0.54902 1
0.819608 0.701961 0.54902 1
0.819608 0.701961 0.54902 1
0.819608 0.701961 0.54902 1
0.819608 0.701961 0.54902 1
0.819608 0.701961 0.54902 1
0.819608 0.701961 0.54902 1
0.819608 0.701961 0.54902 1
0.819608 0.701961 0.54902 1
0.819608 0.701961 0.54902 1
0.819608 0.701961 0.54902 1
0.819608 0.701961 0.54902 1
0.819608 0.701961 0.54902 1
0.819608 0.701961 0.54902 1
0.819608 0.701961 0.54902 1
0.819608 0.701961 0.54902 1
0.819608 0.701961 0.54902 1
0.819608 0.701961 0.54902 1
0.819608 0.701961 0.54902 1
0.819608 0.701961 0.54902 1
0.819608 0.701961 0.54902 1
0.819608 0.701961 0.54902 1
0.819608 0.701961 0.54902 1
0.819608 0.701961 0.54902 1
0.819608 0.701961 0.54902 1
0.819608 0.701961 0.54902 1
0.819608 0.701961 0.54902 1
0.819608 0.701961 0.54902 1
0.819608 0.701961 0.54902 1
0.819608 0.701961 0.54902 1
0.819608 0.701961 0.54902 1
0.819608 0.701961 0.54902 1
0.819608 0.701961 0.54902 1
0.819608 0.701961 0.54902 1
0.819608 0.701961 0.54902 1
0.819608 0.701961 0.54902 1
0.819608 0.701961 0.54902 1
0.819608 0.701961 0.54902 1
0.819608 0.701961 0.54902 1
0.819608 0.701961 0.54902 1
0.819608 0.701961 0.54902 1
0.819608 0.701961 0.54902 1
0.819608 0.701961 0.54902 1
0.819608 0.701961 0.54902 1
0.819608 0.701961 0.54902 1
0.819608 0.701961 0.54902 1
0.819608 0.701961 0.54902 1
0.819608 0.701961 0.54902 1
0.819608 0.701961 0.54902 1
0.819608 0.701961 0.54902 1
0.819608 0.701961 0.54902 1
0.819608 0.701961 0.54902 1
0.819608 0.701961 0.54902 1
0.819608 0.701961 0.54902 1
0.819608 0.701961 0.54902 1
0.819608 0.701961 0.54902 1
0.819608 0.701961 0.54902 1
0.819608 0.701961 0.54902 1
0.819608 0.701961 0.54902 1
0.819608 0.701961 0.54902 1
0.819608 0.701961 0.54902 1
0.819608 0.701961 0.54902 1
0.819608 0.701961 0.54902 1
0.819608 0.701961 0.54902 1
0.819608 0.701961 0.54902 1
0.819608 0.701961 0.54902 1
0.819608 0.701961 0.54902 1
0.819608 0.701961 0.54902 1
0.819608 0.701961 0.54902 1
0.819608 0.701961 0.54902 1
0.819608 0.701961 0.54902 1
0.819608 0.701961 0.54902 1
0.819608 0.701961 0.54902 1
0.819608 0.701961 0.54902 1
0.819608 0.701961 0.54902 1
0.819608 0.701961 0.54902 1
0.819608 0.701961 0.54902 1
0.819608 0.701961 0.54902 1
0.819608 0.701961 0.54902 1
0.819608 0.701961 0.54902 1
0.819608 0.701961 0.54902 1
0.819608 0.701961 0.54902 1
0.819608 0.701961 0.54902 1
0.819608 0.701961 0.54902 1
0.819608 0.701961 0.54902 1
0.819608 0.701961 0.54902 1
0.819608 0.701961 0.54902 1
0.819608 0.701961 0.54902 1
0.819608 0.701961 0.54902 1
0.819608 0.701961 0.54902 1
0.819608 0.701961 0.54902 1
0.819608 0.701961 0.54902 1
0.819608 0.701961 0.54902 1
0.819608 0.701961 0.54902 1
0.819608 0.701961 0.54902 1
0.819608 0.701961 0.54902 1
0.819608 0.701961 0.54902 1
0.819608 0.701961 0.54902 1
0.819608 0.701961 0.54902 1
0.819608 0.701961 0.54902 1
0.819608 0.701961 0.54902 1
0.819608 0.701961 0.54902 1
0.819608 0.701961 0.54902 1
0.819608 0.701961 0.54902 1
0.819608 0.701961 0.54902 1
0.819608 0.701961 0.54902 1
0.819608 0.701961 0.54902 1
0.819608 0.701961 0.54902 1
0.819608 0.701961 0.54902 1
0.819608 0.701961 0.54902 1
0.819608 0.701961 0.54902 1
0.819608 0.701961 0.54902 1
0.819608 0.701961 0.54902 1
0.819608 0.701961 0.54902 1
0.819608 0.701961 0.54902 1
0.819608 0.701961 0.54902 1
0.819608 0.701961 0.54902 1
0.819608 0.701961 0.54902 1
0.819608 0.701961 0.54902 1
0.819608 0.701961 0.54902 1
0.819608 0.701961 0.54902 1
0.819608 0.701961 0.54902 1
0.819608 0.701961 0.54902 1
0.819608 0.701961 0.54902 1
0.819608 0.701961 0.54902 1
0.819608 0.701961 0.54902 1
0.819608 0.701961 0.54902 1
0.819608 0.701961 0.54902 1
0.819608 0.701961 0.54902 1
0.819608 0.701961 0.54902 1
0.819608 0.701961 0.54902 1
0.819608 0.701961 0.54902 1
0.819608 0.701961 0.54902 1
0.819608 0.701961 0.54902 1
0.819608 0.701961 0.54902 1
0.819608 0.701961 0.54902 1
0.819608 0.701961 0.54902 1
0.819608 0.701961 0.54902 1
0.819608 0.701961 0.54902 1
0.819608 0.701961 0.54902 1
0.819608 0.701961 0.54902 1
0.819608 0.701961 0.54902 1
0.819608 0.701961 0.54902 1
0.819608 0.701961 0.54902 1
0.819608 0.701961 0.54902 1
0.819608 0.701961 0.54902 1
0.819608 0.701961 0.54902 1
0.819608 0.701961 0.54902 1
0.819608 0.701961 0.54902 1
0.819608 0.701961 0.54902 1
0.819608 0.701961 0.54902 1
0.819608 0.701961 0.54902 1
0.819608 0.701961 0.54902 1
0.819608 0.701961 0.54902 1
0.819608 0.701961 0.54902 1
0.819608 0.701961 0.54902 1
0.819608 0.701961 0.54902 1
0.819608 0.701961 0.54902 1
0.819608 0.701961 0.54902 1
0.819608 0.701961 0.54902 1
0.819608 0.701961 0.54902 1
0.819608 0.701961 0.54902 1
0.819608 0.701961 0.54902 1
0.819608 0.701961 0.54902 1
0.819608 0.701961 0.54902 1
0.819608 0.701961 0.54902 1
0.819608 0.701961 0.54902 1
0.819608 0.701961 0.54902 1
0.819608 0.701961 0.54902 1
0.819608 0.701961 0.54902 1
0.819608 0.701961 0.54902 1
0.819608 0.701961 0.54902 1
0.819608 0.701961 0.54902 1
0.819608 0.701961 0.54902 1
0.819608 0.701961 0.54902 1
0.819608 0.701961 0.54902 1
0.819608 0.701961 0.54902 1
0.819608 0.701961 0.54902 1
0.819608 0.701961 0.54902 1
0.819608 0.701961 0.54902 1
0.819608 0.701961 0.54902 1
0.819608 0.701961 0.54902 1
0.819608 0.701961 0.54902 1
0.819608 0.701961 0.54902 1
0.819608 0.701961 0.54902 1
0.819608 0.701961 0.54902 1

