# vtk DataFile Version 3.0
Gocad TSurf to VTK
ASCII
DATASET POLYDATA
POINTS 122 float
21600692.109 4576998.859 259.498
21600899.031 4577298.258 273.714
21600765.867 4577228.422 99.996
21601085.688 4577664.797 82.182
21600669.180 4576992.328 222.229
21600711.500 4577003.688 291.954
21600656.336 4576989.094 200.780
21600542.258 4577022.547 102.611
21600481.508 4577017.359 16.131
21600671.031 4577269.961 -120.289
21600912.336 4577465.828 -74.334
21600362.789 4577055.961 -80.395
21600331.547 4577066.102 -105.780
21600508.859 4577438.531 -288.609
21600829.867 4577661.352 -229.629
21600264.500 4577095.539 -148.842
21600399.617 4577555.586 -390.594
21600570.188 4578012.000 -487.929
21600230.453 4577112.008 -168.452
21600095.664 4577176.430 -247.240
21600049.484 4577300.898 -336.915
21600038.547 4577315.836 -349.253
21599986.594 4577399.953 -393.340
21600134.039 4577883.305 -572.809
21600461.156 4578160.023 -547.225
21599856.117 4577579.984 -538.629
21599822.859 4577626.266 -575.856
21599805.648 4577659.938 -584.535
21599781.586 4577705.250 -596.356
21599770.203 4578159.609 -678.887
21599985.156 4578413.375 -657.581
21599732.898 4577800.219 -620.857
21599687.141 4577889.406 -643.970
21599686.234 4577891.547 -644.494
21599685.414 4577892.055 -644.715
21599533.258 4577985.664 -685.464
21599478.250 4578022.383 -695.255
21599378.289 4578161.883 -720.850
21599479.039 4578021.375 -695.063
21599437.914 4578382.828 -738.187
21599622.898 4578465.406 -707.187
21599377.297 4578352.281 -741.365
21599274.266 4578303.578 -753.194
21599273.625 4578302.969 -753.235
21599624.320 4578466.344 -706.951
21599712.078 4578543.680 -692.615
21599757.781 4578585.703 -687.875
21599937.719 4578734.344 -642.977
21600038.320 4578817.492 -617.871
21600079.758 4578851.750 -607.530
21600399.180 4578623.008 -572.043
21600129.961 4578893.813 -595.857
21600173.828 4578930.047 -584.859
21600208.750 4578958.453 -576.144
21600428.477 4579127.797 -522.139
21600207.813 4578958.070 -576.346
21600430.414 4579128.773 -521.708
21600481.109 4579146.977 -511.096
21600677.203 4578723.180 -517.495
21600658.961 4578285.016 -520.949
21600517.211 4579160.180 -503.995
21600708.406 4579225.719 -458.224
21600829.320 4578889.664 -467.276
21600770.641 4578367.313 -498.395
21600737.031 4579235.359 -451.043
21600910.906 4579294.930 -409.365
21601027.820 4578945.727 -408.624
21600925.359 4578403.625 -472.064
21600956.242 4579309.031 -395.855
21600992.680 4579320.367 -384.991
21601029.422 4579331.719 -374.044
21601066.961 4579343.344 -362.857
21601131.563 4579307.859 -348.514
21601224.156 4578837.867 -365.033
21601140.211 4579362.883 -335.200
21601257.305 4579394.109 -290.987
21601327.906 4579200.000 -304.922
21601350.422 4579418.945 -255.829
21601362.820 4579422.234 -251.150
21601363.852 4579422.391 -250.550
21601375.258 4579424.117 -243.886
21601407.633 4579091.195 -276.932
21601376.984 4579424.383 -242.877
21601402.500 4579428.328 -227.957
21601450.344 4579363.031 -211.159
21601487.359 4578982.398 -248.941
21601443.383 4579434.664 -204.049
21601464.086 4579437.125 -190.550
21601553.117 4579447.672 -132.506
21601560.180 4579375.055 -139.714
21601574.102 4579450.164 -118.821
21601617.594 4579446.359 -73.929
21601618.570 4579145.352 -98.612
21601673.484 4579441.484 -16.236
21601749.781 4579308.297 51.718
21601547.680 4578870.742 -106.029
21601716.891 4579437.688 28.566
21601760.586 4579423.258 93.272
21601751.953 4579397.945 132.507
21601709.688 4579099.047 134.267
21601663.414 4578947.492 35.475
21601736.859 4579353.656 201.164
21601730.492 4579320.406 214.280
21601669.594 4578889.797 216.815
21601734.008 4579345.281 214.134
21601623.320 4578738.242 118.024
21601464.320 4578376.781 227.756
21601418.047 4578225.219 128.965
21601577.047 4578586.688 19.232
21601259.039 4577863.758 238.697
21601244.695 4578026.258 -27.551
21601461.313 4578509.938 -122.272
21601128.961 4577949.508 -169.055
21601357.594 4578498.297 -265.314
21601416.469 4578707.789 -256.359
21601046.484 4578145.031 -324.350
21601233.000 4578454.461 -344.459
21600933.906 4578166.305 -405.033
21601303.891 4578729.063 -337.042
21601120.789 4578513.406 -421.710
21600737.539 4578158.703 -469.832
21600785.305 4577948.203 -396.691

POLYGONS 166 664
3 21 20 16
3 4 0 2
3 1 3 2
3 10 110 112
3 18 15 16
3 101 98 99
3 39 37 29
3 37 36 29
3 44 40 29
3 103 102 99
3 119 116 118
3 0 5 1
3 91 90 89
3 52 51 50
3 28 27 23
3 121 17 13
3 64 61 62
3 63 59 120
3 20 19 16
3 75 72 76
3 85 81 118
3 113 95 114
3 71 70 66
3 105 99 100
3 0 1 2
3 79 78 76
3 85 89 84
3 102 101 99
3 101 102 104
3 103 99 105
3 9 8 2
3 41 42 37
3 113 115 112
3 121 120 17
3 12 11 9
3 56 54 50
3 19 18 16
3 53 52 50
3 78 77 76
3 10 3 110
3 97 96 94
3 71 66 72
3 69 68 66
3 113 114 116
3 33 32 29
3 10 14 9
3 109 106 107
3 119 118 73
3 113 111 95
3 98 97 94
3 39 41 37
3 24 17 59
3 65 62 66
3 25 22 23
3 107 110 3
3 108 111 110
3 108 100 111
3 96 93 94
3 119 73 66
3 81 80 76
3 84 83 81
3 94 92 95
3 63 120 67
3 24 30 23
3 36 38 35
3 86 83 84
3 88 87 84
3 99 98 94
3 27 26 23
3 49 30 50
3 93 92 94
3 70 69 66
3 108 110 107
3 49 48 30
3 114 118 116
3 76 72 73
3 94 95 100
3 90 88 89
3 82 80 81
3 60 57 58
3 34 33 29
3 109 3 1
3 103 105 106
3 108 107 105
3 51 49 50
3 32 31 29
3 57 56 50
3 121 14 115
3 46 45 29
3 119 66 67
3 118 81 73
3 36 35 29
3 10 9 2
3 42 43 37
3 24 23 16
3 59 58 50
3 114 95 92
3 7 6 2
3 106 105 107
3 83 82 81
3 10 2 3
3 23 30 29
3 9 14 13
3 40 39 29
3 93 91 92
3 76 73 81
3 120 59 17
3 28 23 29
3 14 112 115
3 61 60 58
3 22 21 16
3 61 58 62
3 6 4 2
3 85 118 114
3 65 64 62
3 75 74 72
3 46 29 30
3 53 55 52
3 63 58 59
3 13 17 16
3 94 100 99
3 109 107 3
3 121 117 120
3 63 62 58
3 119 117 116
3 10 112 14
3 111 100 95
3 73 72 66
3 15 12 13
3 45 44 29
3 47 46 30
3 15 13 16
3 115 116 117
3 24 16 17
3 113 112 111
3 91 89 92
3 24 50 30
3 117 67 120
3 23 22 16
3 26 25 23
3 108 105 100
3 67 66 62
3 11 8 9
3 77 75 76
3 119 67 117
3 87 86 84
3 63 67 62
3 31 28 29
3 68 65 66
3 35 34 29
3 111 112 110
3 74 71 72
3 89 88 84
3 80 79 76
3 121 13 14
3 85 92 89
3 54 53 50
3 24 59 50
3 85 84 81
3 121 115 117
3 12 9 13
3 8 7 2
3 48 47 30
3 85 114 92
3 113 116 115
3 57 50 58

POINT_DATA 122
COLOR_SCALARS GocadColor 4
0.129412 0.541176 0.129412 1
0.129412 0.541176 0.129412 1
0.129412 0.541176 0.129412 1
0.129412 0.541176 0.129412 1
0.129412 0.541176 0.129412 1
0.129412 0.541176 0.129412 1
0.129412 0.541176 0.129412 1
0.129412 0.541176 0.129412 1
0.129412 0.541176 0.129412 1
0.129412 0.541176 0.129412 1
0.129412 0.541176 0.129412 1
0.129412 0.541176 0.129412 1
0.129412 0.541176 0.129412 1
0.129412 0.541176 0.129412 1
0.129412 0.541176 0.129412 1
0.129412 0.541176 0.129412 1
0.129412 0.541176 0.129412 1
0.129412 0.541176 0.129412 1
0.129412 0.541176 0.129412 1
0.129412 0.541176 0.129412 1
0.129412 0.541176 0.129412 1
0.129412 0.541176 0.129412 1
0.129412 0.541176 0.129412 1
0.129412 0.541176 0.129412 1
0.129412 0.541176 0.129412 1
0.129412 0.541176 0.129412 1
0.129412 0.541176 0.129412 1
0.129412 0.541176 0.129412 1
0.129412 0.541176 0.129412 1
0.129412 0.541176 0.129412 1
0.129412 0.541176 0.129412 1
0.129412 0.541176 0.129412 1
0.129412 0.541176 0.129412 1
0.129412 0.541176 0.129412 1
0.129412 0.541176 0.129412 1
0.129412 0.541176 0.129412 1
0.129412 0.541176 0.129412 1
0.129412 0.541176 0.129412 1
0.129412 0.541176 0.129412 1
0.129412 0.541176 0.129412 1
0.129412 0.541176 0.129412 1
0.129412 0.541176 0.129412 1
0.129412 0.541176 0.129412 1
0.129412 0.541176 0.129412 1
0.129412 0.541176 0.129412 1
0.129412 0.541176 0.129412 1
0.129412 0.541176 0.129412 1
0.129412 0.541176 0.129412 1
0.129412 0.541176 0.129412 1
0.129412 0.541176 0.129412 1
0.129412 0.541176 0.129412 1
0.129412 0.541176 0.129412 1
0.129412 0.541176 0.129412 1
0.129412 0.541176 0.129412 1
0.129412 0.541176 0.129412 1
0.129412 0.541176 0.129412 1
0.129412 0.541176 0.129412 1
0.129412 0.541176 0.129412 1
0.129412 0.541176 0.129412 1
0.129412 0.541176 0.129412 1
0.129412 0.541176 0.129412 1
0.129412 0.541176 0.129412 1
0.129412 0.541176 0.129412 1
0.129412 0.541176 0.129412 1
0.129412 0.541176 0.129412 1
0.129412 0.541176 0.129412 1
0.129412 0.541176 0.129412 1
0.129412 0.541176 0.129412 1
0.129412 0.541176 0.129412 1
0.129412 0.541176 0.129412 1
0.129412 0.541176 0.129412 1
0.129412 0.541176 0.129412 1
0.129412 0.541176 0.129412 1
0.129412 0.541176 0.129412 1
0.129412 0.541176 0.129412 1
0.129412 0.541176 0.129412 1
0.129412 0.541176 0.129412 1
0.129412 0.541176 0.129412 1
0.129412 0.541176 0.129412 1
0.129412 0.541176 0.129412 1
0.129412 0.541176 0.129412 1
0.129412 0.541176 0.129412 1
0.129412 0.541176 0.129412 1
0.129412 0.541176 0.129412 1
0.129412 0.541176 0.129412 1
0.129412 0.541176 0.129412 1
0.129412 0.541176 0.129412 1
0.129412 0.541176 0.129412 1
0.129412 0.541176 0.129412 1
0.129412 0.541176 0.129412 1
0.129412 0.541176 0.129412 1
0.129412 0.541176 0.129412 1
0.129412 0.541176 0.129412 1
0.129412 0.541176 0.129412 1
0.129412 0.541176 0.129412 1
0.129412 0.541176 0.129412 1
0.129412 0.541176 0.129412 1
0.129412 0.541176 0.129412 1
0.129412 0.541176 0.129412 1
0.129412 0.541176 0.129412 1
0.129412 0.541176 0.129412 1
0.129412 0.541176 0.129412 1
0.129412 0.541176 0.129412 1
0.129412 0.541176 0.129412 1
0.129412 0.541176 0.129412 1
0.129412 0.541176 0.129412 1
0.129412 0.541176 0.129412 1
0.129412 0.541176 0.129412 1
0.129412 0.541176 0.129412 1
0.129412 0.541176 0.129412 1
0.129412 0.541176 0.129412 1
0.129412 0.541176 0.129412 1
0.129412 0.541176 0.129412 1
0.129412 0.541176 0.129412 1
0.129412 0.541176 0.129412 1
0.129412 0.541176 0.129412 1
0.129412 0.541176 0.129412 1
0.129412 0.541176 0.129412 1
0.129412 0.541176 0.129412 1
0.129412 0.541176 0.129412 1
0.129412 0.541176 0.129412 1
0.129412 0.541176 0.129412 1

