# vtk DataFile Version 3.0
Gocad TSurf to VTK
ASCII
DATASET POLYDATA
POINTS 365 float
21600662.531 4580667.828 -3165.668
21600167.359 4580497.164 -3282.042
21600931.945 4579698.438 -2987.281
21599698.414 4580209.109 -3378.556
21600670.438 4580672.469 -3164.016
21601651.141 4579677.805 -2730.548
21600544.203 4578984.258 -2899.877
21600821.078 4580750.898 -3117.383
21601350.266 4581075.211 -3028.328
21602488.609 4580426.352 -2707.669
21603093.820 4579663.164 -2121.847
21601464.086 4581152.680 -3021.001
21601559.563 4581217.625 -3014.850
21601890.148 4581472.039 -3038.831
21601952.586 4581527.516 -3045.204
21603158.164 4580735.938 -2557.306
21602059.500 4581602.086 -3025.242
21602802.258 4582074.813 -2817.892
21602808.336 4582077.984 -2815.140
21602863.531 4582106.773 -2790.133
21603582.273 4581296.039 -2387.263
21603930.398 4580294.172 -2032.958
21602888.273 4582123.016 -2783.984
21603223.922 4582379.281 -2706.820
21603285.563 4582440.414 -2712.528
21604800.000 4580882.500 -2102.500
21603338.156 4582483.133 -2704.059
21605300.000 4581540.000 -2055.000
21606100.000 4581220.000 -1265.000
21603447.047 4582533.844 -2633.234
21603924.227 4582755.695 -2322.985
21604069.734 4582889.531 -2321.641
21605902.625 4582490.586 -2090.214
21606600.000 4582025.000 -1525.000
21604073.836 4582895.547 -2321.834
21604418.516 4583424.688 -2369.419
21604502.352 4583553.391 -2380.993
21604648.922 4583787.578 -2413.543
21606396.063 4583430.328 -2227.390
21607350.000 4582740.000 -1447.500
21604821.664 4584117.438 -2524.208
21605036.281 4584457.211 -2567.659
21606663.477 4584498.047 -2331.947
21607600.000 4583635.000 -2045.000
21605178.516 4584666.258 -2574.806
21605304.039 4584858.031 -2590.883
21605319.242 4584898.602 -2616.106
21605330.156 4584927.719 -2634.209
21605334.578 4584939.500 -2641.534
21605341.656 4584954.086 -2650.564
21606541.266 4585027.984 -2668.966
21607035.188 4585142.516 -2611.518
21605371.813 4585018.016 -2690.166
21605373.602 4585020.305 -2690.190
21605557.633 4585249.891 -2692.444
21605606.508 4585361.922 -2770.538
21605805.117 4585593.633 -2748.604
21605901.219 4585704.906 -2736.703
21608044.836 4585797.422 -2613.085
21607977.461 4585066.859 -2578.448
21605952.352 4585770.422 -2739.946
21606096.539 4585966.141 -2750.166
21606338.688 4586314.688 -2797.144
21606474.555 4586467.000 -2758.513
21607210.438 4586536.836 -2642.836
21608674.266 4586418.273 -2571.581
21606490.305 4586522.688 -2749.324
21606553.867 4586717.250 -2700.411
21606618.781 4587054.500 -2704.736
21606637.195 4587171.102 -2714.172
21607236.320 4586990.672 -2680.923
21608008.875 4586655.398 -2625.999
21606645.758 4587225.688 -2718.591
21606672.914 4587300.633 -2694.391
21606735.398 4587451.047 -2644.480
21606791.867 4587611.070 -2610.620
21607364.328 4587411.758 -2593.714
21606823.227 4587684.594 -2584.655
21606933.492 4587943.125 -2493.358
21606972.547 4588002.375 -2445.943
21609472.891 4587118.344 -2366.365
21609580.328 4586398.703 -2406.584
21606991.273 4588055.000 -2434.505
21607056.203 4588146.344 -2411.519
21607374.531 4588578.758 -2281.566
21607429.258 4588653.086 -2259.228
21607624.734 4588930.031 -2176.934
21607744.555 4589041.328 -2063.604
21609644.031 4587687.031 -1979.506
21610016.039 4586826.984 -2055.027
21607753.906 4589050.000 -2054.771
21607920.422 4589200.281 -1893.037
21608947.813 4588707.891 -1709.584
21610597.094 4587348.430 -1378.796
21608164.469 4589421.000 -1656.491
21608180.289 4589435.063 -1641.296
21608344.461 4589571.367 -1472.936
21608417.688 4589604.445 -1367.216
21610023.156 4588446.711 -885.422
21608582.406 4589679.281 -1129.000
21608637.188 4589704.063 -1049.869
21608864.641 4589838.328 -755.857
21608892.719 4589858.211 -716.961
21610501.023 4588526.203 -577.128
21610849.164 4587205.984 -931.341
21608979.195 4589943.719 -621.252
21610522.891 4588944.523 -218.934
21611483.328 4587649.320 -115.192
21609065.086 4590005.469 -503.227
21609330.750 4589912.664 142.969
21610698.289 4589128.875 125.458
21611790.891 4587734.906 259.242
21609356.875 4589929.250 181.035
21612036.344 4587021.500 137.635
21611692.898 4586604.172 -148.660
21611964.391 4585943.594 65.403
21611293.656 4587305.625 -545.030
21611209.680 4586485.797 -685.874
21611343.797 4585777.000 -563.049
21610609.414 4585498.422 -1612.897
21611705.656 4585372.977 89.330
21611385.984 4584975.828 118.488
21611000.000 4584820.000 -282.500
21610950.000 4585152.500 -886.250
21611057.555 4584613.469 171.091
21610600.000 4584200.000 230.000
21610337.234 4584396.227 -893.708
21610638.719 4584812.078 -915.291
21609879.156 4583948.352 -1208.826
21610350.852 4584894.203 -1391.433
21610106.781 4583708.234 270.618
21609757.188 4583373.117 256.267
21609753.734 4583369.734 256.356
21609000.000 4583420.000 -742.500
21609719.586 4583355.234 257.726
21608826.297 4584279.125 -2070.861
21609150.000 4584790.000 -2165.000
21608325.000 4583537.500 -1546.250
21608100.000 4584440.000 -2305.000
21608100.000 4582665.000 -875.000
21608903.281 4582535.008 333.515
21607175.000 4581872.500 -908.750
21607800.000 4581680.000 92.500
21608048.031 4581657.680 437.261
21606600.000 4581040.000 -590.000
21607229.125 4580852.234 489.734
21607188.344 4580814.469 488.632
21607315.945 4580931.836 492.017
21607174.711 4580797.781 487.945
21606300.000 4580375.000 -275.000
21606999.570 4580583.328 479.119
21605625.000 4580585.000 -1253.750
21606000.000 4579710.000 40.000
21604800.000 4579270.000 -1062.500
21606683.133 4580158.586 504.528
21606332.813 4579688.383 532.656
21606723.430 4580212.688 501.292
21606271.344 4579605.984 537.463
21606264.805 4579597.227 537.974
21606177.422 4579482.641 541.991
21605700.000 4579045.000 355.000
21605811.180 4579002.383 558.829
21605497.297 4578595.672 567.841
21605364.313 4578432.930 566.962
21605594.766 4578718.594 568.779
21604200.000 4578680.000 -1220.000
21605334.453 4578396.383 566.764
21604475.000 4579395.000 -1428.750
21604750.000 4580110.000 -1637.500
21603880.438 4579672.859 -1875.181
21603178.305 4578376.008 -1542.376
21604100.000 4578110.000 -852.500
21601871.289 4578705.023 -2384.314
21601875.109 4577969.477 -1921.249
21600185.203 4578218.219 -2697.850
21598268.148 4579093.492 -3400.130
21598339.227 4579123.094 -3384.116
21597973.016 4578939.688 -3404.752
21597997.109 4578172.547 -3227.276
21598011.430 4578155.781 -3219.994
21597519.008 4578732.313 -3470.352
21598390.203 4577715.742 -3023.833
21598623.773 4577585.516 -2935.786
21599099.719 4577319.633 -2756.257
21599144.539 4577298.047 -2732.097
21600516.391 4577362.344 -2261.302
21599257.617 4577121.094 -2625.758
21601709.641 4577114.117 -1731.409
21603600.000 4576877.500 -811.250
21600768.008 4576154.617 -1910.784
21599445.836 4576388.875 -2492.275
21601929.500 4576258.273 -1549.444
21601282.180 4575674.625 -1666.470
21603045.820 4576367.078 -1107.676
21602804.719 4575831.570 -1159.377
21603535.984 4576308.547 -738.955
21603406.617 4575654.633 -717.148
21604100.000 4576797.500 -420.000
21604200.000 4576055.000 -355.000
21604000.000 4577540.000 -485.000
21604900.000 4577330.000 645.000
21604350.000 4577750.000 -196.250
21605050.000 4578170.000 381.250
21605025.000 4577592.500 651.250
21605027.578 4577597.914 651.379
21605134.320 4577904.383 614.192
21605213.547 4578131.836 586.592
21605273.555 4578304.133 565.686
21605275.547 4578307.898 565.052
21604775.000 4576640.000 427.500
21604975.000 4576610.000 700.000
21604977.750 4576583.594 702.017
21604973.758 4576097.938 664.201
21604972.914 4575995.797 656.247
21604650.000 4575950.000 210.000
21604986.969 4575899.453 669.117
21605053.328 4575444.414 729.903
21605062.750 4575272.227 731.364
21605019.313 4575144.895 736.493
21603861.273 4574869.801 -68.941
21605026.766 4574504.324 744.144
21605034.141 4574295.914 746.235
21604414.313 4573720.094 302.409
21603592.180 4574171.176 -175.048
21605042.602 4573800.141 751.940
21605032.992 4573665.047 744.965
21605009.336 4573513.125 737.436
21604964.953 4573377.031 714.230
21604519.734 4572874.750 428.798
21604801.898 4572839.566 622.049
21604806.359 4572654.250 587.601
21604950.203 4571916.559 540.029
21604981.750 4571741.609 526.923
21604348.797 4571953.727 196.822
21605003.242 4571804.289 554.912
21605023.406 4571736.457 562.099
21605257.398 4570911.379 322.925
21605094.742 4570265.945 -51.512
21605309.391 4571379.598 627.229
21605613.906 4571056.922 693.092
21605691.016 4570873.711 652.929
21605481.727 4568885.836 -110.264
21605834.602 4569051.734 222.617
21604831.242 4566940.000 -126.878
21605963.617 4569056.055 522.009
21605328.703 4567487.094 181.391
21605494.891 4567533.547 424.579
21604641.352 4566440.664 -56.467
21603537.023 4565650.133 -475.611
21604823.938 4566570.707 144.499
21603798.883 4565529.242 -7.660
21603788.508 4565525.281 -29.820
21603824.648 4565497.918 30.077
21604769.180 4566097.629 382.557
21603880.805 4565507.750 145.186
21603957.367 4565520.469 304.595
21604019.156 4565531.102 431.921
21603760.688 4565539.000 -79.023
21603519.797 4565678.023 -497.921
21604598.313 4567052.164 -713.946
21603486.797 4565681.543 -561.913
21603463.242 4565704.043 -599.091
21604088.164 4566776.680 -921.258
21604184.367 4567570.836 -1121.237
21603787.680 4566936.504 -1338.413
21603422.531 4565737.527 -665.625
21603188.938 4565919.988 -1051.520
21603133.219 4565963.629 -1143.664
21602911.406 4566227.570 -1472.014
21602873.078 4566289.367 -1521.831
21603428.398 4566991.418 -1556.945
21602760.281 4566482.285 -1663.727
21602620.531 4566714.934 -1836.707
21602516.523 4566985.020 -1922.596
21603008.781 4568234.484 -1770.305
21603601.625 4568572.336 -1515.703
21602484.117 4567091.578 -1939.456
21602408.563 4567341.500 -1978.818
21602374.867 4567411.148 -1994.858
21602238.523 4567739.445 -2026.157
21602141.672 4568072.141 -1976.432
21601997.648 4568567.992 -1902.259
21603000.852 4568979.883 -1686.717
21601951.984 4568703.348 -1894.514
21601944.039 4568738.523 -1884.773
21601816.242 4569347.852 -1714.902
21601765.430 4569590.098 -1647.368
21602706.180 4570470.754 -1350.476
21603456.180 4570621.430 -1018.112
21601750.211 4569654.000 -1633.185
21601733.570 4569829.793 -1591.941
21601622.688 4570647.984 -1466.723
21601599.477 4570819.250 -1440.512
21602162.406 4571727.875 -1040.155
21601595.781 4570888.387 -1418.619
21601580.141 4571053.211 -1367.683
21601578.203 4571073.594 -1361.383
21601541.953 4571420.000 -1260.901
21601444.000 4571705.887 -1191.676
21602280.281 4572724.395 -871.027
21602659.070 4572959.047 -667.606
21601295.625 4572043.922 -1173.195
21601204.789 4572177.617 -1228.454
21601175.742 4572220.348 -1246.122
21601031.984 4572436.105 -1334.160
21600974.477 4572522.500 -1369.391
21600940.648 4572657.867 -1401.896
21600884.852 4572834.297 -1467.156
21600848.922 4572948.051 -1509.209
21601771.867 4573465.258 -1256.947
21602240.328 4573608.719 -1022.538
21600631.820 4573372.039 -1828.321
21600570.969 4573575.609 -1896.857
21601622.602 4574341.516 -1493.807
21600487.313 4573926.934 -1973.435
21600471.539 4574008.184 -1989.495
21600474.828 4574208.188 -1944.791
21601420.477 4575108.289 -1401.366
21602631.891 4574243.016 -975.095
21600445.656 4574656.422 -1917.675
21602290.984 4575761.719 -1402.305
21600432.070 4574692.914 -1937.893
21600371.781 4574854.008 -2027.354
21600359.211 4574915.000 -2040.677
21600244.703 4575391.445 -2152.929
21600221.680 4575532.023 -2164.488
21600195.438 4575692.305 -2177.661
21600187.563 4575804.328 -2165.920
21599985.797 4575943.289 -2220.660
21599846.883 4576038.828 -2258.363
21599482.391 4576230.523 -2444.881
21602841.359 4575079.609 -898.742
21602900.133 4573543.125 -477.673
21602634.938 4573608.965 -801.302
21603733.922 4572869.652 -35.260
21603296.367 4572615.406 -362.657
21603293.031 4571578.641 -506.269
21602769.250 4571721.484 -745.021
21604009.352 4570691.602 -626.697
21604464.727 4570537.313 -372.991
21604495.305 4568449.727 -969.901
21604863.703 4570089.719 -272.844
21599354.891 4576941.461 -2548.667
21599351.453 4576962.367 -2550.799
21599327.523 4577011.875 -2560.087
21598830.070 4579327.492 -3273.540
21598904.672 4579390.242 -3256.360
21599014.367 4579482.031 -3231.103
21600490.094 4579506.359 -3070.923
21599086.602 4579564.586 -3248.958
21599204.023 4579688.969 -3274.885
21599427.492 4579930.563 -3332.137
21599638.688 4580158.672 -3386.175
21608050.109 4581659.719 437.105
21608145.633 4581754.430 429.961
21608227.000 4581833.977 425.424
21608365.289 4581971.859 414.035
21608661.945 4582283.461 367.956
21608878.805 4582509.242 337.019
21608750.000 4584745.000 -2350.000
21610021.656 4585709.055 -2193.140
21610638.109 4586350.797 -1711.796
21609889.656 4585156.594 -1899.628
21609369.070 4583020.172 267.058
21599971.844 4580430.398 -3328.058

POLYGONS 500 2000
3 121 118 122
3 152 149 151
3 51 59 58
3 68 67 64
3 160 162 164
3 139 137 39
3 299 300 310
3 104 103 98
3 104 361 117
3 37 32 38
3 340 338 288
3 89 88 80
3 250 252 249
3 75 70 76
3 183 184 174
3 151 28 25
3 262 259 263
3 277 276 274
3 145 144 146
3 189 326 192
3 255 256 253
3 215 213 214
3 214 213 209
3 265 261 264
3 153 165 163
3 139 39 141
3 318 331 317
3 47 46 42
3 160 152 153
3 312 311 309
3 40 37 38
3 69 68 64
3 29 26 27
3 240 236 241
3 165 153 167
3 10 165 169
3 345 176 6
3 20 15 21
3 318 313 310
3 225 224 222
3 323 322 192
3 195 193 196
3 67 66 64
3 12 11 9
3 216 215 214
3 186 344 185
3 38 32 39
3 28 144 141
3 33 28 141
3 144 28 151
3 179 181 174
3 130 128 131
3 300 332 333
3 173 199 170
3 31 30 27
3 361 104 93
3 152 160 159
3 322 321 192
3 42 138 51
3 115 114 118
3 300 335 332
3 168 151 25
3 219 196 331
3 233 339 341
3 135 133 128
3 233 341 232
3 116 103 104
3 102 101 98
3 128 362 136
3 142 147 143
3 32 27 33
3 87 80 88
3 346 345 6
3 305 304 299
3 10 9 5
3 319 316 317
3 261 262 264
3 238 236 239
3 59 51 138
3 152 159 158
3 175 174 6
3 139 355 356
3 54 53 50
3 30 29 27
3 89 361 93
3 337 288 336
3 5 2 6
3 120 115 118
3 139 353 354
3 209 200 197
3 190 330 329
3 169 167 21
3 49 42 50
3 174 173 172
3 329 328 189
3 219 218 214
3 217 216 214
3 188 199 173
3 65 81 80
3 91 88 92
3 245 246 244
3 219 331 223
3 228 233 232
3 0 1 2
3 224 221 222
3 4 0 2
3 128 136 135
3 127 126 122
3 160 164 161
3 117 116 104
3 350 349 348
3 126 127 129
3 41 38 42
3 114 116 117
3 285 284 282
3 202 206 207
3 166 165 208
3 26 24 25
3 307 306 299
3 140 139 358
3 105 102 103
3 362 128 129
3 318 310 333
3 125 126 128
3 326 325 192
3 109 106 110
3 293 287 288
3 233 338 339
3 315 314 313
3 57 56 51
3 108 105 106
3 297 296 293
3 1 364 3
3 85 84 80
3 309 308 299
3 66 63 64
3 6 174 172
3 298 293 299
3 359 138 135
3 194 191 320
3 58 59 359
3 114 107 116
3 289 286 287
3 310 313 309
3 132 133 134
3 43 42 38
3 202 203 204
3 258 248 243
3 222 221 219
3 223 318 332
3 360 119 361
3 274 270 275
3 214 209 198
3 44 41 42
3 201 203 202
3 300 293 337
3 165 207 208
3 241 341 259
3 229 227 228
3 212 211 209
3 232 237 236
3 57 51 58
3 130 125 128
3 194 320 317
3 273 270 274
3 94 91 92
3 342 190 185
3 232 341 237
3 304 303 299
3 76 70 71
3 35 34 32
3 327 326 189
3 144 142 141
3 264 262 263
3 128 132 131
3 185 187 173
3 65 58 360
3 275 340 288
3 187 188 173
3 182 183 174
3 245 249 246
3 233 336 338
3 53 52 50
3 260 258 259
3 213 212 209
3 243 245 242
3 187 191 193
3 184 186 185
3 199 201 171
3 3 352 2
3 168 167 153
3 360 81 65
3 242 240 241
3 231 228 232
3 151 168 153
3 269 264 270
3 347 6 348
3 177 178 174
3 197 200 199
3 8 7 5
3 149 156 150
3 172 173 170
3 196 194 331
3 171 201 202
3 252 254 253
3 13 12 9
3 14 9 15
3 198 209 197
3 45 44 42
3 142 144 145
3 316 315 313
3 84 83 80
3 188 195 197
3 278 277 274
3 63 58 64
3 185 173 174
3 48 47 42
3 37 36 32
3 219 223 222
3 294 292 293
3 273 272 270
3 136 360 359
3 18 17 15
3 61 60 58
3 14 13 9
3 247 249 245
3 220 218 219
3 219 198 196
3 287 282 288
3 149 154 156
3 279 278 274
3 39 33 141
3 157 152 158
3 160 153 162
3 238 235 236
3 138 137 135
3 267 266 264
3 299 310 309
3 25 24 20
3 117 361 119
3 301 298 299
3 261 259 262
3 191 189 192
3 165 202 207
3 311 308 309
3 230 229 228
3 308 307 299
3 178 179 174
3 233 335 336
3 334 228 223
3 9 10 15
3 291 290 287
3 117 119 118
3 34 31 32
3 187 193 188
3 19 18 15
3 271 269 270
3 242 245 244
3 106 107 111
3 209 211 210
3 139 356 357
3 63 62 58
3 181 182 174
3 190 329 189
3 153 152 151
3 240 242 244
3 28 27 25
3 88 89 93
3 102 98 103
3 52 49 50
3 123 119 129
3 135 136 359
3 11 8 9
3 10 169 21
3 109 108 106
3 281 274 282
3 142 145 147
3 107 106 103
3 299 293 300
3 188 197 199
3 276 273 274
3 360 58 359
3 125 124 122
3 74 73 70
3 241 236 237
3 257 251 247
3 250 249 247
3 119 362 129
3 302 301 299
3 49 48 42
3 144 148 146
3 169 165 167
3 351 350 348
3 252 253 249
3 70 64 71
3 254 255 253
3 248 247 243
3 90 87 88
3 223 331 318
3 221 220 219
3 263 340 275
3 284 283 282
3 7 4 5
3 236 240 239
3 251 250 247
3 188 193 195
3 20 21 25
3 43 138 42
3 62 61 58
3 91 90 88
3 233 334 335
3 269 268 264
3 258 243 259
3 328 327 189
3 355 139 354
3 60 57 58
3 149 144 151
3 46 45 42
3 144 149 148
3 165 166 163
3 97 96 92
3 39 137 43
3 227 226 222
3 281 280 274
3 268 267 264
3 280 279 274
3 193 194 196
3 41 40 38
3 219 214 198
3 245 243 247
3 139 142 143
3 69 64 70
3 105 103 106
3 314 312 313
3 98 92 93
3 109 110 112
3 197 195 198
3 123 127 122
3 264 263 270
3 283 281 282
3 82 79 80
3 65 71 64
3 358 139 357
3 340 263 259
3 248 257 247
3 87 86 80
3 107 114 113
3 292 291 287
3 152 155 154
3 124 121 122
3 24 23 20
3 337 293 288
3 137 139 133
3 137 138 43
3 16 14 15
3 286 285 282
3 15 10 21
3 6 172 5
3 191 187 189
3 110 106 111
3 175 177 174
3 149 152 154
3 133 140 363
3 27 28 33
3 198 195 196
3 4 2 5
3 107 103 116
3 336 288 338
3 76 71 65
3 167 168 21
3 352 351 348
3 339 338 340
3 241 259 243
3 286 282 287
3 128 133 132
3 95 94 92
3 290 289 287
3 270 263 275
3 99 97 98
3 313 312 309
3 228 227 222
3 243 242 241
3 160 161 159
3 362 360 136
3 261 260 259
3 127 123 129
3 362 119 360
3 335 337 336
3 317 316 313
3 321 319 192
3 65 64 58
3 121 120 118
3 237 341 241
3 340 341 339
3 75 74 70
3 341 340 259
3 113 114 115
3 8 5 9
3 210 200 209
3 347 346 6
3 101 100 98
3 359 59 138
3 23 22 20
3 155 152 157
3 199 200 201
3 201 200 203
3 177 180 178
3 324 323 192
3 134 133 363
3 319 317 192
3 81 360 361
3 300 337 335
3 303 302 299
3 332 335 334
3 1 3 2
3 223 332 334
3 56 50 51
3 349 347 348
3 78 76 65
3 333 310 300
3 235 234 232
3 185 190 189
3 92 88 93
3 318 317 313
3 272 271 270
3 282 275 288
3 97 92 98
3 55 54 50
3 306 305 299
3 17 16 15
3 104 98 93
3 32 33 39
3 249 253 246
3 194 317 331
3 78 77 76
3 298 297 293
3 111 107 113
3 86 85 80
3 141 142 139
3 353 139 143
3 36 35 32
3 39 43 38
3 31 27 32
3 56 55 50
3 266 265 264
3 334 233 228
3 332 318 333
3 192 317 320
3 114 117 118
3 77 75 76
3 100 99 98
3 352 348 2
3 191 192 320
3 296 295 293
3 79 65 80
3 72 69 70
3 231 230 228
3 170 171 165
3 234 231 232
3 218 217 214
3 194 193 191
3 96 95 92
3 137 133 135
3 226 225 222
3 148 149 150
3 174 184 185
3 50 42 51
3 79 78 65
3 119 123 118
3 343 342 185
3 202 205 206
3 162 153 163
3 176 175 6
3 292 287 293
3 236 235 232
3 170 199 171
3 223 228 222
3 344 343 185
3 202 204 205
3 325 324 192
3 27 26 25
3 168 25 21
3 282 274 275
3 118 123 122
3 202 165 171
3 10 5 170
3 73 72 70
3 83 82 80
3 2 348 6
3 5 172 170
3 126 125 122
3 22 19 20
3 89 81 361
3 295 294 293
3 133 139 140
3 189 187 185
3 81 89 80
3 10 170 165
3 19 15 20
3 126 129 128

POINT_DATA 365
COLOR_SCALARS GocadColor 4
0 1 0.494118 1
0 1 0.494118 1
0 1 0.494118 1
0 1 0.494118 1
0 1 0.494118 1
0 1 0.494118 1
0 1 0.494118 1
0 1 0.494118 1
0 1 0.494118 1
0 1 0.494118 1
0 1 0.494118 1
0 1 0.494118 1
0 1 0.494118 1
0 1 0.494118 1
0 1 0.494118 1
0 1 0.494118 1
0 1 0.494118 1
0 1 0.494118 1
0 1 0.494118 1
0 1 0.494118 1
0 1 0.494118 1
0 1 0.494118 1
0 1 0.494118 1
0 1 0.494118 1
0 1 0.494118 1
0 1 0.494118 1
0 1 0.494118 1
0 1 0.494118 1
0 1 0.494118 1
0 1 0.494118 1
0 1 0.494118 1
0 1 0.494118 1
0 1 0.494118 1
0 1 0.494118 1
0 1 0.494118 1
0 1 0.494118 1
0 1 0.494118 1
0 1 0.494118 1
0 1 0.494118 1
0 1 0.494118 1
0 1 0.494118 1
0 1 0.494118 1
0 1 0.494118 1
0 1 0.494118 1
0 1 0.494118 1
0 1 0.494118 1
0 1 0.494118 1
0 1 0.494118 1
0 1 0.494118 1
0 1 0.494118 1
0 1 0.494118 1
0 1 0.494118 1
0 1 0.494118 1
0 1 0.494118 1
0 1 0.494118 1
0 1 0.494118 1
0 1 0.494118 1
0 1 0.494118 1
0 1 0.494118 1
0 1 0.494118 1
0 1 0.494118 1
0 1 0.494118 1
0 1 0.494118 1
0 1 0.494118 1
0 1 0.494118 1
0 1 0.494118 1
0 1 0.494118 1
0 1 0.494118 1
0 1 0.494118 1
0 1 0.494118 1
0 1 0.494118 1
0 1 0.494118 1
0 1 0.494118 1
0 1 0.494118 1
0 1 0.494118 1
0 1 0.494118 1
0 1 0.494118 1
0 1 0.494118 1
0 1 0.494118 1
0 1 0.494118 1
0 1 0.494118 1
0 1 0.494118 1
0 1 0.494118 1
0 1 0.494118 1
0 1 0.494118 1
0 1 0.494118 1
0 1 0.494118 1
0 1 0.494118 1
0 1 0.494118 1
0 1 0.494118 1
0 1 0.494118 1
0 1 0.494118 1
0 1 0.494118 1
0 1 0.494118 1
0 1 0.494118 1
0 1 0.494118 1
0 1 0.494118 1
0 1 0.494118 1
0 1 0.494118 1
0 1 0.494118 1
0 1 0.494118 1
0 1 0.494118 1
0 1 0.494118 1
0 1 0.494118 1
0 1 0.494118 1
0 1 0.494118 1
0 1 0.494118 1
0 1 0.494118 1
0 1 0.494118 1
0 1 0.494118 1
0 1 0.494118 1
0 1 0.494118 1
0 1 0.494118 1
0 1 0.494118 1
0 1 0.494118 1
0 1 0.494118 1
0 1 0.494118 1
0 1 0.494118 1
0 1 0.494118 1
0 1 0.494118 1
0 1 0.494118 1
0 1 0.494118 1
0 1 0.494118 1
0 1 0.494118 1
0 1 0.494118 1
0 1 0.494118 1
0 1 0.494118 1
0 1 0.494118 1
0 1 0.494118 1
0 1 0.494118 1
0 1 0.494118 1
0 1 0.494118 1
0 1 0.494118 1
0 1 0.494118 1
0 1 0.494118 1
0 1 0.494118 1
0 1 0.494118 1
0 1 0.494118 1
0 1 0.494118 1
0 1 0.494118 1
0 1 0.494118 1
0 1 0.494118 1
0 1 0.494118 1
0 1 0.494118 1
0 1 0.494118 1
0 1 0.494118 1
0 1 0.494118 1
0 1 0.494118 1
0 1 0.494118 1
0 1 0.494118 1
0 1 0.494118 1
0 1 0.494118 1
0 1 0.494118 1
0 1 0.494118 1
0 1 0.494118 1
0 1 0.494118 1
0 1 0.494118 1
0 1 0.494118 1
0 1 0.494118 1
0 1 0.494118 1
0 1 0.494118 1
0 1 0.494118 1
0 1 0.494118 1
0 1 0.494118 1
0 1 0.494118 1
0 1 0.494118 1
0 1 0.494118 1
0 1 0.494118 1
0 1 0.494118 1
0 1 0.494118 1
0 1 0.494118 1
0 1 0.494118 1
0 1 0.494118 1
0 1 0.494118 1
0 1 0.494118 1
0 1 0.494118 1
0 1 0.494118 1
0 1 0.494118 1
0 1 0.494118 1
0 1 0.494118 1
0 1 0.494118 1
0 1 0.494118 1
0 1 0.494118 1
0 1 0.494118 1
0 1 0.494118 1
0 1 0.494118 1
0 1 0.494118 1
0 1 0.494118 1
0 1 0.494118 1
0 1 0.494118 1
0 1 0.494118 1
0 1 0.494118 1
0 1 0.494118 1
0 1 0.494118 1
0 1 0.494118 1
0 1 0.494118 1
0 1 0.494118 1
0 1 0.494118 1
0 1 0.494118 1
0 1 0.494118 1
0 1 0.494118 1
0 1 0.494118 1
0 1 0.494118 1
0 1 0.494118 1
0 1 0.494118 1
0 1 0.494118 1
0 1 0.494118 1
0 1 0.494118 1
0 1 0.494118 1
0 1 0.494118 1
0 1 0.494118 1
0 1 0.494118 1
0 1 0.494118 1
0 1 0.494118 1
0 1 0.494118 1
0 1 0.494118 1
0 1 0.494118 1
0 1 0.494118 1
0 1 0.494118 1
0 1 0.494118 1
0 1 0.494118 1
0 1 0.494118 1
0 1 0.494118 1
0 1 0.494118 1
0 1 0.494118 1
0 1 0.494118 1
0 1 0.494118 1
0 1 0.494118 1
0 1 0.494118 1
0 1 0.494118 1
0 1 0.494118 1
0 1 0.494118 1
0 1 0.494118 1
0 1 0.494118 1
0 1 0.494118 1
0 1 0.494118 1
0 1 0.494118 1
0 1 0.494118 1
0 1 0.494118 1
0 1 0.494118 1
0 1 0.494118 1
0 1 0.494118 1
0 1 0.494118 1
0 1 0.494118 1
0 1 0.494118 1
0 1 0.494118 1
0 1 0.494118 1
0 1 0.494118 1
0 1 0.494118 1
0 1 0.494118 1
0 1 0.494118 1
0 1 0.494118 1
0 1 0.494118 1
0 1 0.494118 1
0 1 0.494118 1
0 1 0.494118 1
0 1 0.494118 1
0 1 0.494118 1
0 1 0.494118 1
0 1 0.494118 1
0 1 0.494118 1
0 1 0.494118 1
0 1 0.494118 1
0 1 0.494118 1
0 1 0.494118 1
0 1 0.494118 1
0 1 0.494118 1
0 1 0.494118 1
0 1 0.494118 1
0 1 0.494118 1
0 1 0.494118 1
0 1 0.494118 1
0 1 0.494118 1
0 1 0.494118 1
0 1 0.494118 1
0 1 0.494118 1
0 1 0.494118 1
0 1 0.494118 1
0 1 0.494118 1
0 1 0.494118 1
0 1 0.494118 1
0 1 0.494118 1
0 1 0.494118 1
0 1 0.494118 1
0 1 0.494118 1
0 1 0.494118 1
0 1 0.494118 1
0 1 0.494118 1
0 1 0.494118 1
0 1 0.494118 1
0 1 0.494118 1
0 1 0.494118 1
0 1 0.494118 1
0 1 0.494118 1
0 1 0.494118 1
0 1 0.494118 1
0 1 0.494118 1
0 1 0.494118 1
0 1 0.494118 1
0 1 0.494118 1
0 1 0.494118 1
0 1 0.494118 1
0 1 0.494118 1
0 1 0.494118 1
0 1 0.494118 1
0 1 0.494118 1
0 1 0.494118 1
0 1 0.494118 1
0 1 0.494118 1
0 1 0.494118 1
0 1 0.494118 1
0 1 0.494118 1
0 1 0.494118 1
0 1 0.494118 1
0 1 0.494118 1
0 1 0.494118 1
0 1 0.494118 1
0 1 0.494118 1
0 1 0.494118 1
0 1 0.494118 1
0 1 0.494118 1
0 1 0.494118 1
0 1 0.494118 1
0 1 0.494118 1
0 1 0.494118 1
0 1 0.494118 1
0 1 0.494118 1
0 1 0.494118 1
0 1 0.494118 1
0 1 0.494118 1
0 1 0.494118 1
0 1 0.494118 1
0 1 0.494118 1
0 1 0.494118 1
0 1 0.494118 1
0 1 0.494118 1
0 1 0.494118 1
0 1 0.494118 1
0 1 0.494118 1
0 1 0.494118 1
0 1 0.494118 1
0 1 0.494118 1
0 1 0.494118 1
0 1 0.494118 1
0 1 0.494118 1
0 1 0.494118 1
0 1 0.494118 1
0 1 0.494118 1
0 1 0.494118 1
0 1 0.494118 1
0 1 0.494118 1
0 1 0.494118 1
0 1 0.494118 1
0 1 0.494118 1
0 1 0.494118 1
0 1 0.494118 1
0 1 0.494118 1
0 1 0.494118 1
0 1 0.494118 1
0 1 0.494118 1
0 1 0.494118 1
0 1 0.494118 1
0 1 0.494118 1
0 1 0.494118 1
0 1 0.494118 1

