# vtk DataFile Version 3.0
Gocad TSurf to VTK
ASCII
DATASET POLYDATA
POINTS 391 float
21609530.844 4587027.063 -3096.521
21609517.563 4586936.672 -3194.098
21608797.594 4587677.234 -3111.231
21608928.727 4587159.992 -3293.482
21609497.758 4587502.242 -2891.765
21609937.523 4586668.016 -3167.152
21609571.016 4586531.797 -3238.353
21610382.773 4586671.531 -2989.132
21610925.000 4585965.000 -2821.250
21610030.789 4587304.016 -2695.711
21610199.203 4585389.805 -2864.481
21610782.000 4584788.938 -2229.126
21608934.984 4586386.219 -3371.488
21609597.023 4585082.031 -2902.478
21608129.617 4586900.234 -3455.904
21607293.531 4586450.063 -3466.423
21607832.938 4587568.828 -3379.193
21606685.281 4588254.906 -3244.490
21607363.000 4587484.344 -3437.845
21606466.102 4587972.211 -3405.061
21607494.125 4587229.906 -3477.401
21606382.273 4587669.141 -3424.782
21607523.797 4587019.836 -3488.993
21606309.305 4587341.781 -3425.625
21606246.461 4587151.805 -3475.183
21606326.836 4587421.813 -3422.334
21606341.320 4587496.531 -3422.967
21606201.273 4586900.234 -3466.026
21606182.641 4586773.609 -3453.326
21606154.125 4586580.969 -3433.996
21606914.523 4586204.531 -3403.611
21606142.156 4586467.000 -3412.896
21607584.344 4585585.805 -3384.101
21608254.031 4585905.883 -3403.699
21606682.258 4585938.086 -3366.354
21606551.516 4585681.773 -3328.687
21605991.055 4586236.203 -3363.597
21605905.344 4586113.125 -3347.395
21606039.445 4586299.617 -3363.606
21606129.461 4586447.625 -3408.785
21605895.539 4586099.227 -3345.822
21605843.367 4586029.258 -3337.777
21605767.258 4585924.031 -3321.250
21605636.094 4585731.883 -3276.368
21606771.422 4585219.469 -3259.166
21605567.250 4585631.453 -3253.437
21608326.008 4585374.719 -3292.619
21607775.242 4583390.453 -2445.855
21608481.820 4584212.555 -2580.078
21605752.688 4584607.789 -2923.475
21607100.000 4582885.000 -2555.000
21605348.672 4585255.938 -3101.773
21605260.234 4585141.320 -3097.879
21605548.109 4585602.984 -3246.962
21605151.781 4585004.344 -3093.704
21605093.781 4584939.500 -3104.534
21605015.070 4584837.125 -3118.451
21605536.867 4583677.891 -2993.826
21604805.250 4584581.094 -3178.199
21606400.000 4582122.500 -2452.500
21607800.000 4582645.000 -1792.500
21604568.516 4584259.055 -3201.096
21604478.531 4584086.516 -3142.487
21604764.727 4584531.641 -3189.739
21604080.273 4583417.102 -3009.620
21605700.000 4581360.000 -2350.000
21604022.844 4583323.078 -2993.825
21607950.000 4581712.500 -880.000
21607100.000 4580880.000 -825.000
21608400.000 4581540.000 121.250
21606800.000 4580225.000 -817.500
21607674.984 4580659.586 454.341
21605550.000 4580637.500 -2272.500
21603853.305 4583150.156 -2971.759
21606100.000 4579675.000 -1432.500
21605400.000 4579915.000 -2195.000
21606500.000 4579570.000 -810.000
21606200.000 4578915.000 -802.500
21606850.000 4579485.000 -187.500
21607356.828 4579947.758 414.086
21607362.023 4579961.266 413.882
21607238.617 4579658.070 419.307
21607124.789 4579379.664 423.906
21606725.000 4578787.500 131.250
21607083.664 4579279.086 425.568
21605759.195 4578437.203 -896.834
21605600.000 4579072.500 -1736.250
21606539.461 4578222.648 450.740
21605548.539 4577907.023 -596.963
21606542.984 4578227.977 450.889
21606658.891 4578406.250 452.335
21606704.477 4578475.945 453.396
21606862.883 4578734.648 438.035
21606898.680 4578826.625 433.042
21606538.844 4578221.469 450.835
21605154.867 4578261.094 -1365.207
21604925.000 4577615.000 -750.000
21604957.141 4579167.414 -2203.766
21604502.141 4578397.039 -2079.013
21604900.000 4580035.000 -2695.000
21604250.000 4579475.000 -3120.000
21604358.203 4581316.844 -3312.159
21604400.000 4580240.000 -3200.000
21603457.961 4583017.078 -3300.961
21603255.500 4582914.219 -3420.638
21603709.656 4583023.391 -2980.891
21603069.594 4582781.383 -3476.445
21603900.000 4580370.000 -3507.500
21603002.211 4582733.266 -3496.723
21603500.000 4579670.000 -3581.250
21602646.477 4582468.844 -3588.635
21603621.453 4578961.859 -3233.187
21602569.375 4579376.453 -3643.532
21602834.813 4578423.070 -3036.327
21601647.867 4581816.172 -3835.172
21600775.961 4581304.906 -4016.958
21601755.258 4581890.297 -3829.901
21601820.297 4581926.078 -3812.723
21602048.602 4582072.734 -3751.021
21602509.789 4582368.969 -3626.381
21601361.867 4579144.938 -3595.141
21600711.664 4581251.539 -4006.339
21602425.141 4578572.688 -3295.153
21601900.000 4578010.000 -2935.000
21603400.000 4577670.000 -1895.000
21602675.813 4577036.680 -2285.846
21603344.727 4578132.406 -2627.383
21603970.555 4577870.188 -2039.496
21603421.766 4578418.313 -2836.593
21604495.727 4577733.875 -1325.952
21604600.000 4577400.000 -735.000
21605675.000 4577442.500 228.750
21605608.844 4577202.148 529.745
21605798.664 4577405.406 460.220
21605577.406 4577175.195 540.516
21605586.984 4577111.875 545.166
21605450.000 4576500.000 283.750
21605653.516 4576666.984 578.027
21604700.000 4576672.500 -695.000
21605300.000 4575830.000 -2.500
21603922.695 4576404.008 -1198.441
21604572.055 4575685.516 -746.527
21603182.273 4576902.820 -1984.195
21602790.469 4575997.578 -1978.515
21601488.773 4575644.016 -2379.004
21601551.805 4577044.367 -2944.695
21602580.367 4575175.273 -1730.963
21603498.703 4575578.914 -1382.099
21599923.938 4574680.375 -2957.248
21600002.438 4574389.656 -2855.532
21599871.742 4574808.504 -3037.334
21600819.766 4575550.695 -2747.098
21599838.000 4574915.000 -3084.583
21600915.000 4576043.469 -2959.421
21599770.422 4575105.934 -3173.006
21599775.164 4575092.527 -3166.797
21599671.859 4575273.602 -3329.199
21599623.391 4575481.711 -3375.129
21599367.930 4575626.023 -3491.147
21599286.398 4575672.086 -3528.178
21599162.430 4575735.844 -3593.804
21599144.078 4575810.875 -3619.439
21599009.477 4576592.234 -3717.430
21598990.727 4576701.094 -3731.082
21598976.133 4576779.734 -3744.091
21598901.805 4576924.547 -3783.287
21598901.188 4576926.031 -3783.282
21598870.953 4576999.586 -3783.058
21598757.797 4577073.563 -3803.131
21597959.398 4577594.578 -3944.861
21597916.789 4577660.531 -3948.462
21597625.859 4578111.031 -3973.028
21597460.352 4578299.359 -4063.306
21597188.586 4578609.016 -4211.661
21597147.656 4578655.477 -4233.954
21597004.836 4578890.500 -4331.550
21596959.922 4578869.141 -4336.371
21597085.125 4578936.172 -4337.984
21597318.047 4579052.031 -4323.246
21598425.039 4579602.625 -4253.197
21598529.242 4579654.547 -4246.625
21598540.031 4579665.484 -4247.314
21598663.570 4579793.102 -4255.783
21599194.266 4580298.727 -4281.689
21599741.305 4580712.227 -4132.768
21599783.438 4580744.063 -4121.298
21599800.328 4580756.844 -4116.701
21599843.930 4580795.102 -4113.394
21600220.352 4580942.766 -4060.149
21600263.297 4580959.609 -4054.074
21600266.734 4580960.969 -4053.589
21600271.703 4580964.219 -4053.062
21602315.188 4574151.184 -1896.158
21600028.797 4574088.219 -2860.277
21604103.398 4574507.215 -734.682
21604301.352 4573878.789 -601.737
21605900.000 4574350.000 615.000
21603057.594 4573628.820 -1503.197
21601882.102 4573213.168 -1931.101
21604309.320 4572999.938 -621.962
21605128.805 4573148.320 -130.168
21603927.117 4572390.902 -800.670
21602701.602 4572679.387 -1594.276
21601979.023 4571702.395 -1699.091
21603356.750 4571754.977 -1059.723
21601824.875 4572631.930 -1920.784
21600551.461 4572147.977 -2530.051
21600650.336 4572013.453 -2456.977
21600379.938 4572522.500 -2530.812
21600377.109 4572591.852 -2519.145
21600336.938 4572764.578 -2554.788
21600277.320 4573020.633 -2607.653
21600242.609 4573192.328 -2632.831
21600197.000 4573449.223 -2658.168
21600148.750 4573635.133 -2706.239
21600127.063 4573736.094 -2730.492
21600060.039 4573976.414 -2819.052
21600664.492 4571994.219 -2446.520
21600784.352 4571834.578 -2358.450
21600937.461 4571583.313 -2289.005
21601036.906 4571420.000 -2243.910
21601057.711 4571352.801 -2236.599
21601059.289 4571319.977 -2249.726
21602038.727 4570279.980 -2271.733
21601088.633 4570711.109 -2493.240
21603697.805 4570811.648 -1176.747
21603858.516 4568504.930 -2095.798
21605344.180 4570300.527 -560.220
21602179.563 4569456.648 -2525.766
21602466.414 4568472.371 -2642.605
21601167.594 4570223.227 -2554.500
21601179.648 4569901.078 -2666.863
21601164.852 4570296.621 -2528.901
21601121.016 4570559.852 -2504.897
21601212.156 4569654.000 -2706.624
21601347.406 4569181.641 -2766.128
21601469.125 4568761.641 -2816.141
21601475.922 4568738.496 -2818.718
21601587.133 4568361.461 -2860.584
21601689.828 4568033.000 -2895.747
21601945.938 4567448.398 -2813.643
21601992.578 4567341.500 -2798.691
21602051.000 4567122.691 -2780.122
21602150.688 4566771.375 -2738.701
21602724.352 4567455.527 -2534.091
21603252.891 4566794.254 -2209.834
21604409.531 4567707.250 -1531.487
21603744.852 4565933.445 -1702.579
21602970.492 4565214.152 -1786.628
21604393.445 4565980.734 -772.836
21605195.742 4567787.250 -687.057
21603404.711 4565226.504 -918.810
21603517.602 4565206.016 -703.454
21603347.266 4565211.176 -1039.368
21603188.656 4565169.059 -1372.716
21603015.578 4565122.844 -1735.865
21604051.055 4564978.238 258.322
21605112.148 4566543.102 -259.751
21604113.477 4564980.773 383.299
21606477.750 4568293.430 439.035
21606563.578 4570521.336 215.943
21605751.070 4566549.078 421.835
21604416.922 4565237.543 453.590
21604174.273 4565012.934 443.770
21604173.477 4565012.191 443.738
21604156.953 4564996.895 443.069
21604151.453 4564991.805 442.847
21604143.164 4564982.102 442.522
21606788.852 4570486.629 457.956
21606412.313 4571107.211 396.780
21605700.000 4571540.000 40.000
21606725.000 4572122.500 581.250
21605750.000 4572242.500 183.750
21606450.000 4572865.000 592.500
21604151.844 4571896.016 -607.714
21605800.000 4572945.000 327.500
21605850.000 4573647.500 471.250
21606175.000 4573607.500 603.750
21602510.555 4565923.883 -2398.562
21602457.313 4566044.598 -2453.036
21602416.023 4566138.023 -2495.239
21602367.938 4566243.316 -2543.605
21602249.047 4566503.406 -2663.133
21605825.000 4575055.000 603.750
21605750.000 4575760.000 592.500
21605675.000 4576465.000 581.250
[...]
POINT_DATA 391
COLOR_SCALARS GocadColor 4
0.0941176 0.0941176 0.439216 1
0.0941176 0.0941176 0.439216 1
0.0941176 0.0941176 0.439216 1
0.0941176 0.0941176 0.439216 1
0.0941176 0.0941176 0.439216 1
0.0941176 0.0941176 0.439216 1
0.0941176 0.0941176 0.439216 1
0.0941176 0.0941176 0.439216 1
0.0941176 0.0941176 0.439216 1
0.0941176 0.0941176 0.439216 1
0.0941176 0.0941176 0.439216 1
0.0941176 0.0941176 0.439216 1
0.0941176 0.0941176 0.439216 1
0.0941176 0.0941176 0.439216 1
0.0941176 0.0941176 0.439216 1
0.0941176 0.0941176 0.439216 1
0.0941176 0.0941176 0.439216 1
0.0941176 0.0941176 0.439216 1
0.0941176 0.0941176 0.439216 1
0.0941176 0.0941176 0.439216 1
0.0941176 0.0941176 0.439216 1
0.0941176 0.0941176 0.439216 1
0.0941176 0.0941176 0.439216 1
0.0941176 0.0941176 0.439216 1
0.0941176 0.0941176 0.439216 1
0.0941176 0.0941176 0.439216 1
0.0941176 0.0941176 0.439216 1
0.0941176 0.0941176 0.439216 1
0.0941176 0.0941176 0.439216 1
0.0941176 0.0941176 0.439216 1
0.0941176 0.0941176 0.439216 1
0.0941176 0.0941176 0.439216 1
0.0941176 0.0941176 0.439216 1
0.0941176 0.0941176 0.439216 1
0.0941176 0.0941176 0.439216 1
0.0941176 0.0941176 0.439216 1
0.0941176 0.0941176 0.439216 1
0.0941176 0.0941176 0.439216 1
0.0941176 0.0941176 0.439216 1
0.0941176 0.0941176 0.439216 1
0.0941176 0.0941176 0.439216 1
0.0941176 0.0941176 0.439216 1
0.0941176 0.0941176 0.439216 1
0.0941176 0.0941176 0.439216 1
0.0941176 0.0941176 0.439216 1
0.0941176 0.0941176 0.439216 1
0.0941176 0.0941176 0.439216 1
0.0941176 0.0941176 0.439216 1
0.0941176 0.0941176 0.439216 1
0.0941176 0.0941176 0.439216 1
0.0941176 0.0941176 0.439216 1
0.0941176 0.0941176 0.439216 1
0.0941176 0.0941176 0.439216 1
0.0941176 0.0941176 0.439216 1
0.0941176 0.0941176 0.439216 1
0.0941176 0.0941176 0.439216 1
0.0941176 0.0941176 0.439216 1
0.0941176 0.0941176 0.439216 1
0.0941176 0.0941176 0.439216 1
0.0941176 0.0941176 0.439216 1
0.0941176 0.0941176 0.439216 1
0.0941176 0.0941176 0.439216 1
0.0941176 0.0941176 0.439216 1
0.0941176 0.0941176 0.439216 1
0.0941176 0.0941176 0.439216 1
0.0941176 0.0941176 0.439216 1
0.0941176 0.0941176 0.439216 1
0.0941176 0.0941176 0.439216 1
0.0941176 0.0941176 0.439216 1
0.0941176 0.0941176 0.439216 1
0.0941176 0.0941176 0.439216 1
0.0941176 0.0941176 0.439216 1
0.0941176 0.0941176 0.439216 1
0.0941176 0.0941176 0.439216 1
0.0941176 0.0941176 0.439216 1
0.0941176 0.0941176 0.439216 1
0.0941176 0.0941176 0.439216 1
0.0941176 0.0941176 0.439216 1
0.0941176 0.0941176 0.439216 1
0.0941176 0.0941176 0.439216 1
0.0941176 0.0941176 0.439216 1
0.0941176 0.0941176 0.439216 1
0.0941176 0.0941176 0.439216 1
0.0941176 0.0941176 0.439216 1
0.0941176 0.0941176 0.439216 1
0.0941176 0.0941176 0.439216 1
0.0941176 0.0941176 0.439216 1
0.0941176 0.0941176 0.439216 1
0.0941176 0.0941176 0.439216 1
0.0941176 0.0941176 0.439216 1
0.0941176 0.0941176 0.439216 1
0.0941176 0.0941176 0.439216 1
0.0941176 0.0941176 0.439216 1
0.0941176 0.0941176 0.439216 1
0.0941176 0.0941176 0.439216 1
0.0941176 0.0941176 0.439216 1
0.0941176 0.0941176 0.439216 1
0.0941176 0.0941176 0.439216 1
0.0941176 0.0941176 0.439216 1
0.0941176 0.0941176 0.439216 1
0.0941176 0.0941176 0.439216 1
0.0941176 0.0941176 0.439216 1
0.0941176 0.0941176 0.439216 1
0.0941176 0.0941176 0.439216 1
0.0941176 0.0941176 0.439216 1
0.0941176 0.0941176 0.439216 1
0.0941176 0.0941176 0.439216 1
0.0941176 0.0941176 0.439216 1
0.0941176 0.0941176 0.439216 1
0.0941176 0.0941176 0.439216 1
0.0941176 0.0941176 0.439216 1
0.0941176 0.0941176 0.439216 1
0.0941176 0.0941176 0.439216 1
0.0941176 0.0941176 0.439216 1
0.0941176 0.0941176 0.439216 1
0.0941176 0.0941176 0.439216 1
0.0941176 0.0941176 0.439216 1
0.0941176 0.0941176 0.439216 1
0.0941176 0.0941176 0.439216 1
0.0941176 0.0941176 0.439216 1
0.0941176 0.0941176 0.439216 1
0.0941176 0.0941176 0.439216 1
0.0941176 0.0941176 0.439216 1
0.0941176 0.0941176 0.439216 1
0.0941176 0.0941176 0.439216 1
0.0941176 0.0941176 0.439216 1
0.0941176 0.0941176 0.439216 1
0.0941176 0.0941176 0.439216 1
0.0941176 0.0941176 0.439216 1
0.0941176 0.0941176 0.439216 1
0.0941176 0.0941176 0.439216 1
0.0941176 0.0941176 0.439216 1
0.0941176 0.0941176 0.439216 1
0.0941176 0.0941176 0.439216 1
0.0941176 0.0941176 0.439216 1
0.0941176 0.0941176 0.439216 1
0.0941176 0.0941176 0.439216 1
0.0941176 0.0941176 0.439216 1
0.0941176 0.0941176 0.439216 1
0.0941176 0.0941176 0.439216 1
0.0941176 0.0941176 0.439216 1
0.0941176 0.0941176 0.439216 1
0.0941176 0.0941176 0.439216 1
0.0941176 0.0941176 0.439216 1
0.0941176 0.0941176 0.439216 1
0.0941176 0.0941176 0.439216 1
0.0941176 0.0941176 0.439216 1
0.0941176 0.0941176 0.439216 1
0.0941176 0.0941176 0.439216 1
0.0941176 0.0941176 0.439216 1
0.0941176 0.0941176 0.439216 1
0.0941176 0.0941176 0.439216 1
0.0941176 0.0941176 0.439216 1
0.0941176 0.0941176 0.439216 1
0.0941176 0.0941176 0.439216 1
0.0941176 0.0941176 0.439216 1
0.0941176 0.0941176 0.439216 1
0.0941176 0.0941176 0.439216 1
0.0941176 0.0941176 0.439216 1
0.0941176 0.0941176 0.439216 1
0.0941176 0.0941176 0.439216 1
0.0941176 0.0941176 0.439216 1
0.0941176 0.0941176 0.439216 1
0.0941176 0.0941176 0.439216 1
0.0941176 0.0941176 0.439216 1
0.0941176 0.0941176 0.439216 1
0.0941176 0.0941176 0.439216 1
0.0941176 0.0941176 0.439216 1
0.0941176 0.0941176 0.439216 1
0.0941176 0.0941176 0.439216 1
0.0941176 0.0941176 0.439216 1
0.0941176 0.0941176 0.439216 1
0.0941176 0.0941176 0.439216 1
0.0941176 0.0941176 0.439216 1
0.0941176 0.0941176 0.439216 1
0.0941176 0.0941176 0.439216 1
0.0941176 0.0941176 0.439216 1
0.0941176 0.0941176 0.439216 1
0.0941176 0.0941176 0.439216 1
0.0941176 0.0941176 0.439216 1
0.0941176 0.0941176 0.439216 1
0.0941176 0.0941176 0.439216 1
0.0941176 0.0941176 0.439216 1
0.0941176 0.0941176 0.439216 1
0.0941176 0.0941176 0.439216 1
0.0941176 0.0941176 0.439216 1
0.0941176 0.0941176 0.439216 1
0.0941176 0.0941176 0.439216 1
0.0941176 0.0941176 0.439216 1
0.0941176 0.0941176 0.439216 1
0.0941176 0.0941176 0.439216 1
0.0941176 0.0941176 0.439216 1
0.0941176 0.0941176 0.439216 1
0.0941176 0.0941176 0.439216 1
0.0941176 0.0941176 0.439216 1
0.0941176 0.0941176 0.439216 1
0.0941176 0.0941176 0.439216 1
0.0941176 0.0941176 0.439216 1
0.0941176 0.0941176 0.439216 1
0.0941176 0.0941176 0.439216 1
0.0941176 0.0941176 0.439216 1
0.0941176 0.0941176 0.439216 1
0.0941176 0.0941176 0.439216 1
0.0941176 0.0941176 0.439216 1
0.0941176 0.0941176 0.439216 1
0.0941176 0.0941176 0.439216 1
0.0941176 0.0941176 0.439216 1
0.0941176 0.0941176 0.439216 1
0.0941176 0.0941176 0.439216 1
0.0941176 0.0941176 0.439216 1
0.0941176 0.0941176 0.439216 1
0.0941176 0.0941176 0.439216 1
0.0941176 0.0941176 0.439216 1
0.0941176 0.0941176 0.439216 1
0.0941176 0.0941176 0.439216 1
0.0941176 0.0941176 0.439216 1
0.0941176 0.0941176 0.439216 1
0.0941176 0.0941176 0.439216 1
0.0941176 0.0941176 0.439216 1
0.0941176 0.0941176 0.439216 1
0.0941176 0.0941176 0.439216 1
0.0941176 0.0941176 0.439216 1
0.0941176 0.0941176 0.439216 1
0.0941176 0.0941176 0.439216 1
0.0941176 0.0941176 0.439216 1
0.0941176 0.0941176 0.439216 1
0.0941176 0.0941176 0.439216 1
0.0941176 0.0941176 0.439216 1
0.0941176 0.0941176 0.439216 1
0.0941176 0.0941176 0.439216 1
0.0941176 0.0941176 0.439216 1
0.0941176 0.0941176 0.439216 1
0.0941176 0.0941176 0.439216 1
0.0941176 0.0941176 0.439216 1
0.0941176 0.0941176 0.439216 1
0.0941176 0.0941176 0.439216 1
0.0941176 0.0941176 0.439216 1
0.0941176 0.0941176 0.439216 1
0.0941176 0.0941176 0.439216 1
0.0941176 0.0941176 0.439216 1
0.0941176 0.0941176 0.439216 1
0.0941176 0.0941176 0.439216 1
0.0941176 0.0941176 0.439216 1
0.0941176 0.0941176 0.439216 1
0.0941176 0.0941176 0.439216 1
0.0941176 0.0941176 0.439216 1
0.0941176 0.0941176 0.439216 1
0.0941176 0.0941176 0.439216 1
0.0941176 0.0941176 0.439216 1
0.0941176 0.0941176 0.439216 1
0.0941176 0.0941176 0.439216 1
0.0941176 0.0941176 0.439216 1
0.0941176 0.0941176 0.439216 1
0.0941176 0.0941176 0.439216 1
0.0941176 0.0941176 0.439216 1
0.0941176 0.0941176 0.439216 1
0.0941176 0.0941176 0.439216 1
0.0941176 0.0941176 0.439216 1
0.0941176 0.0941176 0.439216 1
0.0941176 0.0941176 0.439216 1
0.0941176 0.0941176 0.439216 1
0.0941176 0.0941176 0.439216 1
0.0941176 0.0941176 0.439216 1
0.0941176 0.0941176 0.439216 1
0.0941176 0.0941176 0.439216 1
0.0941176 0.0941176 0.439216 1
0.0941176 0.0941176 0.439216 1
0.0941176 0.0941176 0.439216 1
0.0941176 0.0941176 0.439216 1
0.0941176 0.0941176 0.439216 1
0.0941176 0.0941176 0.439216 1
0.0941176 0.0941176 0.439216 1
0.0941176 0.0941176 0.439216 1
0.0941176 0.0941176 0.439216 1
0.0941176 0.0941176 0.439216 1
0.0941176 0.0941176 0.439216 1
0.0941176 0.0941176 0.439216 1
0.0941176 0.0941176 0.439216 1
0.0941176 0.0941176 0.439216 1
0.0941176 0.0941176 0.439216 1
0.0941176 0.0941176 0.439216 1
0.0941176 0.0941176 0.439216 1
0.0941176 0.0941176 0.439216 1
0.0941176 0.0941176 0.439216 1
0.0941176 0.0941176 0.439216 1
0.0941176 0.0941176 0.439216 1
0.0941176 0.0941176 0.439216 1
0.0941176 0.0941176 0.439216 1
0.0941176 0.0941176 0.439216 1
0.0941176 0.0941176 0.439216 1
0.0941176 0.0941176 0.439216 1
0.0941176 0.0941176 0.439216 1
0.0941176 0.0941176 0.439216 1
0.0941176 0.0941176 0.439216 1
0.0941176 0.0941176 0.439216 1
0.0941176 0.0941176 0.439216 1
0.0941176 0.0941176 0.439216 1
0.0941176 0.0941176 0.439216 1
0.0941176 0.0941176 0.439216 1
0.0941176 0.0941176 0.439216 1
0.0941176 0.0941176 0.439216 1
0.0941176 0.0941176 0.439216 1
0.0941176 0.0941176 0.439216 1
0.0941176 0.0941176 0.439216 1
0.0941176 0.0941176 0.439216 1
0.0941176 0.0941176 0.439216 1
0.0941176 0.0941176 0.439216 1
0.0941176 0.0941176 0.439216 1
0.0941176 0.0941176 0.439216 1
0.0941176 0.0941176 0.439216 1
0.0941176 0.0941176 0.439216 1
0.0941176 0.0941176 0.439216 1
0.0941176 0.0941176 0.439216 1
0.0941176 0.0941176 0.439216 1
0.0941176 0.0941176 0.439216 1
0.0941176 0.0941176 0.439216 1
0.0941176 0.0941176 0.439216 1
0.0941176 0.0941176 0.439216 1
0.0941176 0.0941176 0.439216 1
0.0941176 0.0941176 0.439216 1
0.0941176 0.0941176 0.439216 1
0.0941176 0.0941176 0.439216 1
0.0941176 0.0941176 0.439216 1
0.0941176 0.0941176 0.439216 1
0.0941176 0.0941176 0.439216 1
0.0941176 0.0941176 0.439216 1
0.0941176 0.0941176 0.439216 1
0.0941176 0.0941176 0.439216 1
0.0941176 0.0941176 0.439216 1
0.0941176 0.0941176 0.439216 1
0.0941176 0.0941176 0.439216 1
0.0941176 0.0941176 0.439216 1
0.0941176 0.0941176 0.439216 1
0.0941176 0.0941176 0.439216 1
0.0941176 0.0941176 0.439216 1
0.0941176 0.0941176 0.439216 1
0.0941176 0.0941176 0.439216 1
0.0941176 0.0941176 0.439216 1
0.0941176 0.0941176 0.439216 1
0.0941176 0.0941176 0.439216 1
0.0941176 0.0941176 0.439216 1
0.0941176 0.0941176 0.439216 1
0.0941176 0.0941176 0.439216 1
0.0941176 0.0941176 0.439216 1
0.0941176 0.0941176 0.439216 1
0.0941176 0.0941176 0.439216 1
0.0941176 0.0941176 0.439216 1
0.0941176 0.0941176 0.439216 1
0.0941176 0.0941176 0.439216 1
0.0941176 0.0941176 0.439216 1
0.0941176 0.0941176 0.439216 1
0.0941176 0.0941176 0.439216 1
0.0941176 0.0941176 0.439216 1
0.0941176 0.0941176 0.439216 1
0.0941176 0.0941176 0.439216 1
0.0941176 0.0941176 0.439216 1
0.0941176 0.0941176 0.439216 1
0.0941176 0.0941176 0.439216 1
0.0941176 0.0941176 0.439216 1
0.0941176 0.0941176 0.439216 1
0.0941176 0.0941176 0.439216 1
0.0941176 0.0941176 0.439216 1
0.0941176 0.0941176 0.439216 1
0.0941176 0.0941176 0.439216 1
0.0941176 0.0941176 0.439216 1
0.0941176 0.0941176 0.439216 1
0.0941176 0.0941176 0.439216 1
0.0941176 0.0941176 0.439216 1
0.0941176 0.0941176 0.439216 1
0.0941176 0.0941176 0.439216 1
0.0941176 0.0941176 0.439216 1
0.0941176 0.0941176 0.439216 1
0.0941176 0.0941176 0.439216 1
0.0941176 0.0941176 0.439216 1
0.0941176 0.0941176 0.439216 1
0.0941176 0.0941176 0.439216 1
0.0941176 0.0941176 0.439216 1
0.0941176 0.0941176 0.439216 1
0.0941176 0.0941176 0.439216 1
0.0941176 0.0941176 0.439216 1
0.0941176 0.0941176 0.439216 1
0.0941176 0.0941176 0.439216 1
0.0941176 0.0941176 0.439216 1
0.0941176 0.0941176 0.439216 1
0.0941176 0.0941176 0.439216 1
0.0941176 0.0941176 0.439216 1
0.0941176 0.0941176 0.439216 1
0.0941176 0.0941176 0.439216 1
0.0941176 0.0941176 0.439216 1
0.0941176 0.0941176 0.439216 1
0.0941176 0.0941176 0.439216 1

