# vtk DataFile Version 3.0
Gocad TSurf to VTK
ASCII
DATASET POLYDATA
POINTS 102 float
21564500.000 4584350.000 -20.000
21565000.000 4584700.000 -605.000
21563900.000 4585145.000 -7.500
21564425.000 4585467.500 -581.250
21564400.000 4584320.000 135.000
21564300.000 4584270.000 160.000
21563700.000 4585045.000 150.000
21563600.000 4586060.000 -265.000
21563100.000 4585820.000 140.000
21563100.000 4586895.000 -342.500
21563875.000 4587312.500 -568.750
21562500.000 4586595.000 130.000
21562200.000 4587530.000 -285.000
21562700.000 4587770.000 -510.000
21561900.000 4587370.000 120.000
21561900.000 4587905.000 -177.500
21562125.000 4588007.500 -320.000
21561675.000 4587785.000 126.250
21561600.000 4588280.000 -70.000
21562050.000 4588485.000 -355.000
21561450.000 4588200.000 132.500
21561300.000 4588655.000 37.500
21561675.000 4588835.000 -255.000
21561225.000 4588615.000 138.750
21561000.000 4589030.000 145.000
21561500.000 4589270.000 -245.000
21560850.000 4589677.500 145.000
21561225.000 4589857.500 -147.500
21562100.000 4589560.000 -385.000
21560700.000 4590325.000 145.000
21561050.000 4590490.000 -182.500
21561650.000 4590027.500 -401.250
21560550.000 4590972.500 145.000
21560825.000 4591100.000 -151.250
21561750.000 4590765.000 -327.500
21560400.000 4591620.000 145.000
21560400.000 4591630.000 145.000
21560600.000 4591710.000 -120.000
21560900.000 4591790.000 -330.000
21561275.000 4591277.500 -351.250
21561000.000 4591850.000 -340.000
21561400.000 4591970.000 -270.000
21561650.000 4591400.000 -277.500
21562150.000 4590260.000 -292.500
21561400.000 4591970.000 -260.000
21562400.000 4589690.000 -300.000
21562200.000 4590277.500 -243.750
21562325.000 4589157.500 -416.250
21561975.000 4588962.500 -390.000
21563125.000 4589537.500 -48.750
21563350.000 4589135.000 -125.000
21562900.000 4589940.000 35.000
21563270.500 4590134.516 317.512
21562600.000 4590480.000 80.000
21562900.000 4590637.500 308.750
21561900.000 4590830.000 -285.000
21562250.000 4590990.000 -20.000
21561800.000 4591452.500 -131.250
21561600.000 4592040.000 -75.000
21562000.000 4591560.000 170.000
21561700.000 4592100.000 215.000
21562100.000 4591612.500 246.250
21562500.000 4591125.000 277.500
21563035.328 4590472.570 319.322
21563290.063 4590115.195 317.910
21563515.016 4589744.695 313.229
21563526.438 4589720.813 312.675
21563550.000 4589245.000 152.500
21563569.469 4589651.266 311.862
21563590.547 4589620.000 312.490
21563645.688 4589535.445 313.113
21563575.219 4589643.828 312.429
21563750.000 4589350.000 305.000
21563875.000 4588897.500 211.250
21563575.000 4588732.500 -216.250
21563975.000 4588950.000 287.500
21564200.000 4588550.000 270.000
21563800.000 4588330.000 -300.000
21564950.000 4587937.500 263.750
21564275.000 4587530.000 -425.000
21564950.000 4587940.000 263.750
21565700.000 4587330.000 257.500
21565400.000 4587110.000 -70.000
21566000.000 4586390.000 -240.000
21564950.000 4586845.000 -515.000
21564200.000 4586410.000 -550.000
21565225.000 4585930.000 -675.000
21566600.000 4585670.000 -410.000
21566100.000 4585360.000 -745.000
21566450.000 4586720.000 251.250
21566895.063 4586352.086 247.541
21567187.813 4586091.273 231.703
21566892.953 4586359.727 247.559
21565700.000 4585130.000 -800.000
21565300.000 4584890.000 -790.000
21563400.000 4588120.000 -495.000
21562775.000 4588352.500 -478.750
21562500.000 4588187.500 -488.750
21562900.000 4588910.000 -397.500
21563275.000 4588582.500 -362.500
21562550.000 4588755.000 -447.500
21562300.000 4588605.000 -467.500

POLYGONS 153 612
3 83 82 86
3 79 85 84
3 26 25 27
3 87 83 86
3 19 101 48
3 36 35 33
3 7 85 10
3 15 16 19
3 31 28 43
3 37 36 33
3 0 1 2
3 97 96 101
3 84 82 79
3 97 13 96
3 90 87 91
3 46 55 43
3 42 39 34
3 17 14 15
3 95 13 10
3 47 48 101
3 22 18 19
3 76 73 77
3 77 95 79
3 76 78 80
3 77 73 74
3 67 72 70
3 85 7 3
3 73 67 74
3 100 96 98
3 65 64 49
3 27 25 28
3 78 81 80
3 29 27 30
3 27 31 30
3 81 83 89
3 57 43 55
3 50 49 47
3 50 67 49
3 99 74 50
3 2 5 4
3 93 86 3
3 78 82 81
3 48 22 19
3 66 65 49
3 99 77 74
3 83 87 89
3 19 97 101
3 72 73 75
3 33 30 34
3 82 78 79
3 58 57 59
3 52 51 49
3 24 25 26
3 57 56 59
3 11 12 14
3 98 99 50
3 1 94 3
3 66 49 67
3 95 10 79
3 58 44 57
3 33 32 30
3 26 27 29
3 73 76 75
3 9 8 7
3 44 43 57
3 1 3 2
3 90 89 87
3 85 86 84
3 39 33 34
3 69 71 68
3 23 20 21
3 56 55 53
3 42 43 41
3 96 100 101
3 8 6 7
3 46 51 53
3 16 97 19
3 72 67 73
3 56 57 55
3 98 50 47
3 11 8 9
3 41 43 44
3 60 59 61
3 69 67 70
3 14 12 15
3 94 93 3
3 93 88 86
3 18 15 19
3 13 12 9
3 49 45 47
3 25 21 22
3 20 17 18
3 31 43 34
3 47 100 98
3 53 51 54
3 25 24 21
3 96 95 98
3 60 58 59
3 30 31 34
3 76 77 78
3 53 62 56
3 64 52 49
3 69 68 67
3 4 0 2
3 77 99 95
3 12 11 9
3 6 2 7
3 90 92 89
3 22 21 18
3 12 13 16
3 68 66 67
3 13 9 10
3 67 50 74
3 32 29 30
3 25 22 48
3 46 43 45
3 39 38 33
3 95 96 13
3 38 37 33
3 95 99 98
3 53 54 62
3 52 63 51
3 82 83 81
3 45 51 46
3 51 45 49
3 35 32 33
3 24 23 21
3 40 38 39
3 9 7 10
3 63 54 51
3 34 43 42
3 6 5 2
3 10 85 79
3 61 59 56
3 25 48 28
3 41 40 39
3 45 28 47
3 17 15 18
3 31 27 28
3 20 18 21
3 3 7 2
3 55 46 53
3 62 61 56
3 15 12 16
3 78 77 79
3 41 39 42
3 16 13 97
3 28 45 43
3 47 28 48
3 86 85 3
3 88 87 86
3 82 84 86
3 100 47 101

POINT_DATA 102
COLOR_SCALARS GocadColor 4
1 0.447059 0.337255 1
1 0.447059 0.337255 1
1 0.447059 0.337255 1
1 0.447059 0.337255 1
1 0.447059 0.337255 1
1 0.447059 0.337255 1
1 0.447059 0.337255 1
1 0.447059 0.337255 1
1 0.447059 0.337255 1
1 0.447059 0.337255 1
1 0.447059 0.337255 1
1 0.447059 0.337255 1
1 0.447059 0.337255 1
1 0.447059 0.337255 1
1 0.447059 0.337255 1
1 0.447059 0.337255 1
1 0.447059 0.337255 1
1 0.447059 0.337255 1
1 0.447059 0.337255 1
1 0.447059 0.337255 1
1 0.447059 0.337255 1
1 0.447059 0.337255 1
1 0.447059 0.337255 1
1 0.447059 0.337255 1
1 0.447059 0.337255 1
1 0.447059 0.337255 1
1 0.447059 0.337255 1
1 0.447059 0.337255 1
1 0.447059 0.337255 1
1 0.447059 0.337255 1
1 0.447059 0.337255 1
1 0.447059 0.337255 1
1 0.447059 0.337255 1
1 0.447059 0.337255 1
1 0.447059 0.337255 1
1 0.447059 0.337255 1
1 0.447059 0.337255 1
1 0.447059 0.337255 1
1 0.447059 0.337255 1
1 0.447059 0.337255 1
1 0.447059 0.337255 1
1 0.447059 0.337255 1
1 0.447059 0.337255 1
1 0.447059 0.337255 1
1 0.447059 0.337255 1
1 0.447059 0.337255 1
1 0.447059 0.337255 1
1 0.447059 0.337255 1
1 0.447059 0.337255 1
1 0.447059 0.337255 1
1 0.447059 0.337255 1
1 0.447059 0.337255 1
1 0.447059 0.337255 1
1 0.447059 0.337255 1
1 0.447059 0.337255 1
1 0.447059 0.337255 1
1 0.447059 0.337255 1
1 0.447059 0.337255 1
1 0.447059 0.337255 1
1 0.447059 0.337255 1
1 0.447059 0.337255 1
1 0.447059 0.337255 1
1 0.447059 0.337255 1
1 0.447059 0.337255 1
1 0.447059 0.337255 1
1 0.447059 0.337255 1
1 0.447059 0.337255 1
1 0.447059 0.337255 1
1 0.447059 0.337255 1
1 0.447059 0.337255 1
1 0.447059 0.337255 1
1 0.447059 0.337255 1
1 0.447059 0.337255 1
1 0.447059 0.337255 1
1 0.447059 0.337255 1
1 0.447059 0.337255 1
1 0.447059 0.337255 1
1 0.447059 0.337255 1
1 0.447059 0.337255 1
1 0.447059 0.337255 1
1 0.447059 0.337255 1
1 0.447059 0.337255 1
1 0.447059 0.337255 1
1 0.447059 0.337255 1
1 0.447059 0.337255 1
1 0.447059 0.337255 1
1 0.447059 0.337255 1
1 0.447059 0.337255 1
1 0.447059 0.337255 1
1 0.447059 0.337255 1
1 0.447059 0.337255 1
1 0.447059 0.337255 1
1 0.447059 0.337255 1
1 0.447059 0.337255 1
1 0.447059 0.337255 1
1 0.447059 0.337255 1
1 0.447059 0.337255 1
1 0.447059 0.337255 1
1 0.447059 0.337255 1
1 0.447059 0.337255 1
1 0.447059 0.337255 1
1 0.447059 0.337255 1

