# vtk DataFile Version 3.0
Gocad TSurf to VTK
ASCII
DATASET POLYDATA
POINTS 143 float
21562150.000 4586435.000 -362.500
21561900.000 4587400.000 -760.000
21561500.000 4587200.000 -370.000
21561425.000 4587677.500 -387.500
21561650.000 4586165.000 156.250
21562400.000 4587620.000 -985.000
21562950.000 4586830.000 -977.500
21561850.000 4587882.500 -746.250
21562225.000 4588050.000 -915.000
21561350.000 4588155.000 -405.000
21561550.000 4588255.000 -600.000
21561050.000 4588000.000 -112.500
21560750.000 4587850.000 152.500
21560825.000 4588400.000 16.250
21561375.000 4588682.500 -520.000
21560675.000 4588325.000 148.750
21560600.000 4588800.000 145.000
21561200.000 4589110.000 -440.000
21561750.000 4588847.500 -718.750
21560825.000 4589677.500 -345.000
21561400.000 4589910.000 -652.500
21560300.000 4589417.500 103.750
21560850.000 4590380.000 -467.500
21560150.000 4589365.000 138.750
21560000.000 4590035.000 62.500
21559700.000 4589930.000 132.500
21560075.000 4590812.500 -155.000
21560525.000 4590962.500 -312.500
21559700.000 4590652.500 21.250
21559700.000 4591380.000 -60.000
21559250.000 4590495.000 126.250
21559400.000 4591270.000 -20.000
21558800.000 4591060.000 120.000
21560100.000 4591510.000 -160.000
21560300.000 4591580.000 -270.000
21560800.000 4591070.000 -547.500
21560500.000 4591650.000 -495.000
21560800.000 4591760.000 -650.000
21561000.000 4591820.000 -705.000
21561275.000 4591255.000 -718.750
21561100.000 4591890.000 -730.000
21561250.000 4590545.000 -677.500
21561600.000 4590725.000 -745.000
21561850.000 4590142.500 -752.500
21562100.000 4589560.000 -760.000
21562350.000 4591025.000 -507.500
21563000.000 4589990.000 -465.000
21562025.000 4591547.500 -528.750
21562250.000 4591632.500 -256.250
21561400.000 4591980.000 -705.000
21561700.000 4592070.000 -550.000
21562000.000 4592180.000 -190.000
21562475.000 4591715.000 88.750
21562301.047 4592286.586 268.923
21562334.609 4592261.445 270.000
21562299.203 4592289.711 268.776
21562800.000 4591877.500 270.000
21563150.000 4591390.000 230.000
21563300.000 4591465.000 270.000
21563800.000 4591052.500 270.000
21564000.000 4590490.000 190.000
21564300.000 4590640.000 270.000
21564500.000 4590222.500 302.500
21564550.000 4589730.000 295.000
21563650.000 4589295.000 -535.000
21564700.000 4589805.000 335.000
21564825.000 4589350.000 347.500
21564450.000 4589162.500 -155.000
21564900.000 4589387.500 367.500
21564917.906 4589350.109 370.411
21564929.563 4589205.508 367.463
21564987.875 4589107.445 367.912
21565049.203 4588985.047 356.627
21564300.000 4588600.000 -605.000
21563750.000 4588802.500 -738.750
21565063.156 4588952.961 353.722
21565236.703 4588752.719 333.448
21565575.000 4588215.000 168.750
21565200.000 4588027.500 -333.750
21565674.297 4588276.234 284.596
21565748.531 4588195.398 276.309
21565992.906 4587922.789 244.134
21566040.016 4587872.992 240.001
21565800.000 4587335.000 -397.500
21566141.609 4587769.391 231.289
21566304.344 4587619.266 230.629
21566525.000 4586705.000 -293.750
21565950.000 4586372.500 -783.750
21566367.109 4587553.117 230.682
21566917.438 4587033.461 228.896
21566973.250 4586981.414 229.202
21566996.344 4586959.867 229.329
21567600.000 4586320.000 175.000
21567000.000 4585950.000 -525.000
21566400.000 4585590.000 -955.000
21565425.000 4586032.500 -1028.750
21564950.000 4586825.000 -962.500
21565900.000 4585240.000 -1095.000
21565900.000 4585230.000 -1095.000
21565125.000 4585852.500 -1058.750
21565500.000 4585000.000 -1135.000
21565500.000 4584980.000 -1135.000
21565500.000 4584970.000 -1150.000
21565025.000 4585787.500 -1105.000
21564550.000 4586605.000 -1060.000
21565100.000 4584780.000 -1150.000
21564550.000 4585542.500 -1132.500
21565100.000 4584770.000 -1150.000
21564250.000 4585347.500 -1008.750
21563800.000 4586185.000 -1032.500
21564700.000 4584510.000 -985.000
21564700.000 4584490.000 -985.000
21564700.000 4584480.000 -985.000
21564700.000 4584470.000 -970.000
21564600.000 4584460.000 -955.000
21564050.000 4585250.000 -962.500
21563550.000 4584955.000 -445.000
21564100.000 4584140.000 -340.000
21563900.000 4583960.000 145.000
21563150.000 4584695.000 148.750
21563000.000 4585770.000 -550.000
21562400.000 4585430.000 152.500
21564475.000 4587615.000 -896.250
21563600.000 4588240.000 -970.000
21563325.000 4588617.500 -907.500
21562900.000 4587860.000 -1080.000
21562925.000 4588435.000 -988.750
21562600.000 4588230.000 -986.250
21562500.000 4588710.000 -920.000
21562050.000 4588475.000 -845.000
21562000.000 4588970.000 -798.750
21561800.000 4588365.000 -732.500
21561700.000 4589340.000 -705.000
21562300.000 4589135.000 -840.000
21562675.000 4589320.000 -806.250
21563050.000 4588995.000 -845.000
21563150.000 4589545.000 -591.250
21560825.000 4587375.000 156.250
21560900.000 4586900.000 160.000
21562301.047 4592286.586 268.923
21562300.000 4592290.000 270.000
21562299.203 4592289.711 268.776
21562334.609 4592261.445 270.000

POLYGONS 212 848
3 34 33 27
3 72 71 67
3 57 56 52
3 51 48 52
3 27 26 22
3 125 5 6
3 21 23 16
3 131 10 7
3 25 28 30
3 88 85 86
3 130 129 128
3 17 14 18
3 124 135 126
3 65 63 66
3 128 126 135
3 105 102 103
3 130 44 132
3 134 136 46
3 21 19 22
3 38 37 35
3 110 107 108
3 20 22 19
3 39 42 47
3 116 115 109
3 78 77 73
3 24 28 25
3 82 81 77
3 74 73 67
3 18 14 131
3 9 3 7
3 65 66 68
3 117 114 116
3 10 9 7
3 93 92 86
3 138 2 137
3 49 40 39
3 52 48 45
3 42 43 45
3 16 17 19
3 86 92 91
3 85 84 83
3 49 39 47
3 69 68 66
3 17 16 14
3 53 55 51
3 64 74 67
3 51 47 48
3 13 11 9
3 60 59 57
3 135 124 64
3 97 94 95
3 63 64 67
3 23 24 25
3 60 61 59
3 30 31 32
3 135 136 134
3 42 39 41
3 45 43 46
3 98 97 95
3 43 44 46
3 131 129 18
3 5 125 127
3 2 1 3
3 20 19 17
3 22 41 35
3 96 104 99
3 34 27 35
3 87 83 96
3 89 88 86
3 100 98 99
3 80 79 77
3 82 77 83
3 125 124 126
3 107 106 108
3 70 66 67
3 67 66 63
3 131 7 8
3 13 9 14
3 40 38 39
3 27 22 35
3 57 58 56
3 114 108 115
3 6 120 109
3 50 49 47
3 47 45 48
3 26 24 22
3 87 93 86
3 114 115 116
3 15 11 13
3 33 26 27
3 6 5 0
3 90 89 86
3 4 2 138
3 17 18 132
3 123 73 74
3 57 52 45
3 90 86 91
3 4 121 0
3 123 125 6
3 81 80 77
3 20 41 22
3 28 29 31
3 134 44 133
3 70 69 66
3 8 127 128
3 29 28 26
3 101 100 99
3 102 101 99
3 9 10 14
3 26 33 29
3 103 102 99
3 41 20 43
3 124 74 64
3 136 135 64
3 21 24 23
3 129 131 8
3 44 134 46
3 103 104 106
3 46 60 57
3 130 132 18
3 8 5 127
3 60 64 63
3 9 11 3
3 104 96 122
3 78 122 96
3 12 137 3
3 7 5 8
3 77 78 83
3 79 76 77
3 129 8 128
3 122 123 6
3 12 11 15
3 126 128 127
3 35 41 39
3 115 108 109
3 76 75 73
3 122 78 73
3 123 124 125
3 99 95 96
3 109 106 104
3 137 2 3
3 121 119 120
3 59 58 57
3 133 130 128
3 122 73 123
3 133 128 135
3 126 127 125
3 52 56 54
3 1 5 7
3 46 64 60
3 119 118 116
3 53 52 54
3 35 39 38
3 20 44 43
3 63 62 60
3 94 93 87
3 53 51 52
3 95 87 96
3 0 121 120
3 14 10 131
3 16 13 14
3 123 74 124
3 76 73 77
3 94 87 95
3 118 117 116
3 11 12 3
3 16 19 21
3 45 46 57
3 114 113 108
3 105 103 106
3 35 37 36
3 0 1 2
3 46 136 64
3 119 116 120
3 104 103 99
3 120 6 0
3 28 24 26
3 132 44 20
3 28 31 30
3 109 104 6
3 2 4 0
3 47 42 45
3 72 67 73
3 113 112 108
3 104 122 6
3 51 50 47
3 112 111 108
3 36 34 35
3 62 61 60
3 134 133 135
3 43 42 41
3 44 130 133
3 85 83 86
3 3 1 7
3 120 116 109
3 71 70 67
3 75 72 73
3 83 78 96
3 84 82 83
3 106 109 108
3 98 95 99
3 83 87 86
3 107 105 106
3 129 130 18
3 62 63 65
3 111 110 108
3 16 15 13
3 24 21 22
3 20 17 132
3 5 1 0
3 142 140 139
3 139 140 141

POINT_DATA 143
COLOR_SCALARS GocadColor 4
0.313725 0.623529 0.411765 1
0.313725 0.623529 0.411765 1
0.313725 0.623529 0.411765 1
0.313725 0.623529 0.411765 1
0.313725 0.623529 0.411765 1
0.313725 0.623529 0.411765 1
0.313725 0.623529 0.411765 1
0.313725 0.623529 0.411765 1
0.313725 0.623529 0.411765 1
0.313725 0.623529 0.411765 1
0.313725 0.623529 0.411765 1
0.313725 0.623529 0.411765 1
0.313725 0.623529 0.411765 1
0.313725 0.623529 0.411765 1
0.313725 0.623529 0.411765 1
0.313725 0.623529 0.411765 1
0.313725 0.623529 0.411765 1
0.313725 0.623529 0.411765 1
0.313725 0.623529 0.411765 1
0.313725 0.623529 0.411765 1
0.313725 0.623529 0.411765 1
0.313725 0.623529 0.411765 1
0.313725 0.623529 0.411765 1
0.313725 0.623529 0.411765 1
0.313725 0.623529 0.411765 1
0.313725 0.623529 0.411765 1
0.313725 0.623529 0.411765 1
0.313725 0.623529 0.411765 1
0.313725 0.623529 0.411765 1
0.313725 0.623529 0.411765 1
0.313725 0.623529 0.411765 1
0.313725 0.623529 0.411765 1
0.313725 0.623529 0.411765 1
0.313725 0.623529 0.411765 1
0.313725 0.623529 0.411765 1
0.313725 0.623529 0.411765 1
0.313725 0.623529 0.411765 1
0.313725 0.623529 0.411765 1
0.313725 0.623529 0.411765 1
0.313725 0.623529 0.411765 1
0.313725 0.623529 0.411765 1
0.313725 0.623529 0.411765 1
0.313725 0.623529 0.411765 1
0.313725 0.623529 0.411765 1
0.313725 0.623529 0.411765 1
0.313725 0.623529 0.411765 1
0.313725 0.623529 0.411765 1
0.313725 0.623529 0.411765 1
0.313725 0.623529 0.411765 1
0.313725 0.623529 0.411765 1
0.313725 0.623529 0.411765 1
0.313725 0.623529 0.411765 1
0.313725 0.623529 0.411765 1
0.313725 0.623529 0.411765 1
0.313725 0.623529 0.411765 1
0.313725 0.623529 0.411765 1
0.313725 0.623529 0.411765 1
0.313725 0.623529 0.411765 1
0.313725 0.623529 0.411765 1
0.313725 0.623529 0.411765 1
0.313725 0.623529 0.411765 1
0.313725 0.623529 0.411765 1
0.313725 0.623529 0.411765 1
0.313725 0.623529 0.411765 1
0.313725 0.623529 0.411765 1
0.313725 0.623529 0.411765 1
0.313725 0.623529 0.411765 1
0.313725 0.623529 0.411765 1
0.313725 0.623529 0.411765 1
0.313725 0.623529 0.411765 1
0.313725 0.623529 0.411765 1
0.313725 0.623529 0.411765 1
0.313725 0.623529 0.411765 1
0.313725 0.623529 0.411765 1
0.313725 0.623529 0.411765 1
0.313725 0.623529 0.411765 1
0.313725 0.623529 0.411765 1
0.313725 0.623529 0.411765 1
0.313725 0.623529 0.411765 1
0.313725 0.623529 0.411765 1
0.313725 0.623529 0.411765 1
0.313725 0.623529 0.411765 1
0.313725 0.623529 0.411765 1
0.313725 0.623529 0.411765 1
0.313725 0.623529 0.411765 1
0.313725 0.623529 0.411765 1
0.313725 0.623529 0.411765 1
0.313725 0.623529 0.411765 1
0.313725 0.623529 0.411765 1
0.313725 0.623529 0.411765 1
0.313725 0.623529 0.411765 1
0.313725 0.623529 0.411765 1
0.313725 0.623529 0.411765 1
0.313725 0.623529 0.411765 1
0.313725 0.623529 0.411765 1
0.313725 0.623529 0.411765 1
0.313725 0.623529 0.411765 1
0.313725 0.623529 0.411765 1
0.313725 0.623529 0.411765 1
0.313725 0.623529 0.411765 1
0.313725 0.623529 0.411765 1
0.313725 0.623529 0.411765 1
0.313725 0.623529 0.411765 1
0.313725 0.623529 0.411765 1
0.313725 0.623529 0.411765 1
0.313725 0.623529 0.411765 1
0.313725 0.623529 0.411765 1
0.313725 0.623529 0.411765 1
0.313725 0.623529 0.411765 1
0.313725 0.623529 0.411765 1
0.313725 0.623529 0.411765 1
0.313725 0.623529 0.411765 1
0.313725 0.623529 0.411765 1
0.313725 0.623529 0.411765 1
0.313725 0.623529 0.411765 1
0.313725 0.623529 0.411765 1
0.313725 0.623529 0.411765 1
0.313725 0.623529 0.411765 1
0.313725 0.623529 0.411765 1
0.313725 0.623529 0.411765 1
0.313725 0.623529 0.411765 1
0.313725 0.623529 0.411765 1
0.313725 0.623529 0.411765 1
0.313725 0.623529 0.411765 1
0.313725 0.623529 0.411765 1
0.313725 0.623529 0.411765 1
0.313725 0.623529 0.411765 1
0.313725 0.623529 0.411765 1
0.313725 0.623529 0.411765 1
0.313725 0.623529 0.411765 1
0.313725 0.623529 0.411765 1
0.313725 0.623529 0.411765 1
0.313725 0.623529 0.411765 1
0.313725 0.623529 0.411765 1
0.313725 0.623529 0.411765 1
0.313725 0.623529 0.411765 1
0.313725 0.623529 0.411765 1
0.313725 0.623529 0.411765 1
0.313725 0.623529 0.411765 1
0.313725 0.623529 0.411765 1
0.313725 0.623529 0.411765 1
0.313725 0.623529 0.411765 1
0.313725 0.623529 0.411765 1

