# vtk DataFile Version 3.0
Gocad TSurf to VTK
ASCII
DATASET POLYDATA
POINTS 64 float
21565770.859 4586301.289 286.768
21565340.219 4586670.578 287.618
21565750.000 4586275.000 262.500
21565335.141 4586675.039 287.688
21565780.172 4586293.109 286.642
21566286.078 4585848.680 279.808
21566500.000 4585630.000 260.000
21566200.000 4585430.000 -35.000
21566520.797 4585642.477 276.637
21566000.000 4585310.000 -160.000
21565375.000 4586020.000 -75.000
21565000.000 4586920.000 265.000
21566000.000 4585300.000 -175.000
21566000.000 4585290.000 -190.000
21565900.000 4585280.000 -200.000
21565225.000 4585930.000 -116.250
21564400.000 4586550.000 70.000
21565900.000 4585270.000 -215.000
21565800.000 4585170.000 -245.000
21565800.000 4585180.000 -245.000
21565600.000 4585060.000 -230.000
21564775.000 4585675.000 -106.250
21565300.000 4584890.000 -130.000
21565008.125 4584685.688 205.656
21564994.219 4584705.578 206.742
21564860.375 4584857.438 214.418
21563800.000 4586205.000 210.000
21563200.000 4586967.500 207.500
21563500.000 4587125.000 16.250
21563725.000 4587245.000 -58.750
21562600.000 4587730.000 205.000
21563000.000 4587940.000 -50.000
21563200.000 4588030.000 -35.000
21562775.000 4588345.000 -28.750
21562350.000 4588125.000 193.750
21562100.000 4588515.000 182.500
21562550.000 4588735.000 -7.500
21562750.000 4588830.000 70.000
21562050.000 4589015.000 -20.000
21562475.000 4589210.000 118.750
21561925.516 4588794.172 174.648
21561904.641 4588830.094 172.510
21561925.359 4588789.188 174.641
21561873.172 4588877.922 172.293
21561850.000 4588915.000 171.250
21561869.734 4588876.531 172.138
21561800.000 4589400.000 -20.000
21562000.000 4589480.000 -50.000
21561600.000 4589310.000 160.000
21561600.000 4589300.000 160.000
21561850.000 4588907.500 171.250
21562100.000 4589530.000 35.000
21562300.000 4589630.000 175.000
21562600.000 4589275.000 198.750
21562900.000 4588920.000 222.500
21562975.000 4588430.000 17.500
21563200.000 4588565.000 246.250
21563300.000 4588110.000 65.000
21563500.000 4588210.000 270.000
21564250.000 4587565.000 267.500
21564275.000 4587580.000 287.500
21565033.516 4586940.117 291.818
21564680.391 4587250.453 296.654
21564860.375 4584857.438 214.418

POLYGONS 81 324
3 30 31 33
3 31 30 28
3 26 21 16
3 23 21 24
3 21 26 25
3 15 20 19
3 28 32 31
3 39 37 53
3 15 16 21
3 33 32 37
3 15 18 17
3 5 6 8
3 44 45 43
3 55 54 37
3 29 32 28
3 29 28 16
3 38 39 47
3 61 62 60
3 29 16 11
3 57 32 29
3 9 7 2
3 22 20 21
3 15 10 16
3 29 59 58
3 15 14 10
3 21 25 24
3 11 61 60
3 38 44 43
3 38 35 36
3 16 10 11
3 2 7 6
3 58 57 29
3 6 5 2
3 10 2 11
3 38 41 40
3 3 61 11
3 10 13 12
3 2 3 11
3 20 15 21
3 10 9 2
3 27 26 28
3 59 29 11
3 38 43 41
3 10 14 13
3 15 19 18
3 1 3 2
3 32 57 55
3 38 36 39
3 59 60 58
3 31 32 33
3 57 56 55
3 12 9 10
3 23 22 21
3 42 35 40
3 46 44 38
3 57 58 56
3 5 4 2
3 30 27 28
3 28 26 16
3 39 53 52
3 51 47 39
3 50 44 49
3 35 38 40
3 52 51 39
3 0 1 2
3 36 33 37
3 56 54 55
3 44 50 45
3 39 36 37
3 59 11 60
3 26 27 25
3 25 27 63
3 14 15 17
3 48 49 44
3 54 53 37
3 47 46 38
3 34 30 33
3 46 48 44
3 35 34 33
3 36 35 33
3 4 0 2

POINT_DATA 64
COLOR_SCALARS GocadColor 4
0.854902 0.666667 0 1
0.854902 0.666667 0 1
0.854902 0.666667 0 1
0.854902 0.666667 0 1
0.854902 0.666667 0 1
0.854902 0.666667 0 1
0.854902 0.666667 0 1
0.854902 0.666667 0 1
0.854902 0.666667 0 1
0.854902 0.666667 0 1
0.854902 0.666667 0 1
0.854902 0.666667 0 1
0.854902 0.666667 0 1
0.854902 0.666667 0 1
0.854902 0.666667 0 1
0.854902 0.666667 0 1
0.854902 0.666667 0 1
0.854902 0.666667 0 1
0.854902 0.666667 0 1
0.854902 0.666667 0 1
0.854902 0.666667 0 1
0.854902 0.666667 0 1
0.854902 0.666667 0 1
0.854902 0.666667 0 1
0.854902 0.666667 0 1
0.854902 0.666667 0 1
0.854902 0.666667 0 1
0.854902 0.666667 0 1
0.854902 0.666667 0 1
0.854902 0.666667 0 1
0.854902 0.666667 0 1
0.854902 0.666667 0 1
0.854902 0.666667 0 1
0.854902 0.666667 0 1
0.854902 0.666667 0 1
0.854902 0.666667 0 1
0.854902 0.666667 0 1
0.854902 0.666667 0 1
0.854902 0.666667 0 1
0.854902 0.666667 0 1
0.854902 0.666667 0 1
0.854902 0.666667 0 1
0.854902 0.666667 0 1
0.854902 0.666667 0 1
0.854902 0.666667 0 1
0.854902 0.666667 0 1
0.854902 0.666667 0 1
0.854902 0.666667 0 1
0.854902 0.666667 0 1
0.854902 0.666667 0 1
0.854902 0.666667 0 1
0.854902 0.666667 0 1
0.854902 0.666667 0 1
0.854902 0.666667 0 1
0.854902 0.666667 0 1
0.854902 0.666667 0 1
0.854902 0.666667 0 1
0.854902 0.666667 0 1
0.854902 0.666667 0 1
0.854902 0.666667 0 1
0.854902 0.666667 0 1
0.854902 0.666667 0 1
0.854902 0.666667 0 1
0.854902 0.666667 0 1

