# vtk DataFile Version 3.0
Gocad TSurf to VTK
ASCII
DATASET POLYDATA
POINTS 570 float
21503670.141 4542155.000 124.164
21503374.672 4542155.000 130.042
21501538.000 4542155.000 146.058
21501736.094 4542155.000 152.018
21501538.000 4542155.000 -1000.000
21503837.563 4542155.000 126.212
21501538.000 4542626.576 125.396
21501538.000 4543704.148 109.703
21501538.000 4543832.965 106.476
21501538.000 4544041.980 111.753
21501538.000 4545111.734 113.650
21501538.000 4545812.027 119.873
21501538.000 4546490.582 126.441
21501538.000 4547137.430 119.940
21501538.000 4547527.250 114.497
21501538.000 4548453.723 95.512
21501538.000 4547662.395 112.610
21501538.000 4549018.496 95.409
21501538.000 4549673.195 99.360
21501538.000 4554565.051 74.486
21501538.000 4551985.746 118.896
21501538.000 4571077.500 -1000.000
21501538.000 4556976.816 57.019
21501538.000 4542155.000 -4000.000
21532080.000 4542155.000 -4000.000
21501538.000 4585539.000 -4000.000
21501538.000 4600000.000 -1000.000
21501538.000 4542155.000 -5000.000
21501538.000 4571077.668 -5000.000
21521899.328 4542155.000 -5000.000
21562621.328 4542155.000 -5000.000
21623704.000 4542155.000 -5000.000
21623704.000 4542155.000 -4000.000
21623704.000 4551795.668 -5000.000
21562620.000 4542155.000 -1000.000
21623704.000 4542155.000 -1000.000
21526238.016 4542155.000 109.179
21527560.031 4542155.000 127.182
21515348.344 4542155.000 197.257
21522732.313 4542155.000 173.342
21512642.250 4542155.000 174.164
21513977.750 4542155.000 201.136
21511656.797 4542155.000 174.815
21505217.250 4542155.000 162.637
21506625.234 4542155.000 201.837
21506718.438 4542155.000 204.055
21506816.109 4542155.000 210.341
21508064.719 4542155.000 348.284
21509235.594 4542155.000 316.035
21511224.516 4542155.000 217.649
21509521.391 4542155.000 320.254
21509716.328 4542155.000 330.663
21514500.813 4542155.000 205.452
21513184.250 4542155.000 191.194
21522469.031 4542155.000 177.657
21523490.031 4542155.000 163.063
21524549.484 4542155.000 147.588
21525847.906 4542155.000 119.887
21524319.547 4542155.000 153.799
21519847.594 4542155.000 240.919
21520096.609 4542155.000 238.443
21515960.594 4542155.000 229.051
21518528.125 4542155.000 261.961
21516689.656 4542155.000 265.607
21519494.891 4542155.000 255.057
21517287.609 4542155.000 299.758
21517727.313 4542155.000 296.400
21521267.609 4542155.000 240.551
21531857.578 4542155.000 154.432
21532457.141 4542155.000 152.073
21528016.484 4542155.000 150.813
21531325.328 4542155.000 165.321
21529416.484 4542155.000 182.970
21530608.703 4542155.000 180.966
21529387.234 4542155.000 183.062
21529395.719 4542155.000 183.173
21533443.781 4542155.000 146.504
21534398.625 4542155.000 179.065
21535768.016 4542155.000 206.388
21536627.203 4542155.000 217.267
21535045.719 4542155.000 202.050
21537042.813 4542155.000 243.235
21537159.438 4542155.000 250.478
21545957.484 4542155.000 241.138
21561360.375 4542155.000 312.982
21545248.031 4542155.000 275.199
21539411.547 4542155.000 331.594
21544512.281 4542155.000 359.899
21538563.125 4542155.000 337.635
21538922.453 4542155.000 345.311
21540281.453 4542155.000 368.880
21541499.375 4542155.000 424.248
21541387.063 4542155.000 426.660
21541774.422 4542155.000 434.299
21543317.875 4542155.000 471.686
21541554.172 4542155.000 429.826
21542952.250 4542155.000 508.533
21547347.688 4542155.000 274.680
21566302.156 4542155.000 295.016
21579090.102 4542155.000 617.782
21562803.781 4542155.000 315.493
21564419.656 4542155.000 329.058
21562566.594 4542155.000 322.483
21562951.063 4542155.000 326.785
21565981.891 4542155.000 311.388
21564743.656 4542155.000 330.178
21567967.938 4542155.000 375.126
21580564.250 4542155.000 419.993
21580761.141 4542155.000 385.555
21588391.102 4542155.000 323.343
21597373.805 4542155.000 311.095
21587692.875 4542155.000 396.054
21587092.820 4542155.000 446.189
21583999.766 4542155.000 491.427
21585847.719 4542155.000 535.004
21581055.391 4542155.000 424.988
21583781.117 4542155.000 527.425
21582356.398 4542155.000 664.436
21584142.133 4542155.000 499.191
21585604.891 4542155.000 542.576
21588919.234 4542155.000 328.318
21597691.852 4542155.000 307.008
21602706.586 4542155.000 294.816
21602328.945 4542155.000 310.054
21601293.031 4542155.000 353.342
21599969.023 4542155.000 364.300
21600915.078 4542155.000 385.705
21599122.680 4542155.000 362.897
21599386.008 4542155.000 377.589
21609960.523 4542155.000 327.991
21608936.188 4542155.000 330.903
21610171.250 4542155.000 329.260
21611107.625 4542155.000 334.897
21616132.359 4542155.000 389.614
21620474.250 4542155.000 373.092
21612160.477 4542155.000 394.863
21612503.977 4542155.000 408.129
21613619.570 4542155.000 476.199
21614348.281 4542155.000 476.792
21615444.922 4542155.000 443.446
21617498.242 4542155.000 414.180
21622450.500 4542155.000 401.979
21622061.906 4542155.000 399.789
21623547.641 4542155.000 413.524
21623704.000 4542155.000 423.485
21623704.000 4543235.133 437.539
21623704.000 4543881.750 441.769
21623704.000 4555646.398 410.484
21623704.000 4544850.359 531.880
21623704.000 4571077.500 -1000.000
21623704.000 4555915.605 413.843
21623704.000 4556616.000 -4000.000
21623704.000 4600000.000 -4000.000
21623704.000 4600000.000 -1000.000
21623704.000 4600000.000 -5000.000
21623704.000 4571077.332 -5000.000
21603342.672 4600000.000 -5000.000
21593162.000 4600000.000 -4000.000
21562620.672 4600000.000 -5000.000
21562620.000 4600000.000 -1000.000
21501538.000 4600000.000 -4000.000
21613089.922 4600000.000 355.554
21602589.594 4600000.000 466.981
21614154.906 4600000.000 370.888
21614378.063 4600000.000 373.906
21623704.000 4600000.000 456.852
21617070.570 4600000.000 433.688
21623704.000 4598797.359 485.283
21623704.000 4599908.977 460.574
21623704.000 4596218.242 473.058
21623704.000 4597553.789 522.522
21623704.000 4595452.203 435.695
21623704.000 4595717.914 461.483
21623704.000 4593594.875 489.081
21623704.000 4594344.281 502.163
21623704.000 4592920.727 468.627
21623704.000 4591008.109 373.895
21623704.000 4592617.000 459.411
21623704.000 4590160.930 359.181
21623704.000 4584999.547 310.814
21623704.000 4586925.891 362.762
21623704.000 4579778.328 419.956
21623704.000 4580580.391 450.582
21623704.000 4579255.727 439.113
21623704.000 4578128.125 462.634
21623704.000 4578326.023 477.977
21623704.000 4577619.383 423.190
21623704.000 4570513.684 324.316
21623704.000 4575617.672 434.391
21623704.000 4570052.023 317.428
21623704.000 4569053.598 299.497
21623704.000 4568452.453 302.357
21623704.000 4567057.785 305.123
21623704.000 4566863.406 307.643
21623704.000 4565472.340 357.254
21623704.000 4566768.816 314.725
21623704.000 4565060.871 371.525
21623704.000 4565090.395 371.987
21623704.000 4556546.137 507.273
21623704.000 4561481.688 519.279
21623704.000 4556285.973 485.198
21623704.000 4560767.164 598.270
21623704.000 4564646.230 404.875
21623704.000 4563603.852 483.878
21623704.000 4562173.934 524.474
21623704.000 4563509.730 496.785
21623704.000 4557904.797 598.309
21623704.000 4558398.445 623.214
21623704.000 4557298.496 571.107
21623704.000 4559570.078 676.041
21623704.000 4559500.559 682.484
21623704.000 4559525.531 680.705
21623704.000 4575368.543 435.912
21623704.000 4576821.563 457.998
21623704.000 4571030.500 350.262
21623704.000 4574642.711 465.521
21623704.000 4571938.793 433.592
21623704.000 4573712.172 506.526
21623704.000 4573477.438 509.870
21623704.000 4573103.500 511.644
21623704.000 4583882.938 458.981
21623704.000 4583563.719 496.173
21623704.000 4582432.789 582.877
21623704.000 4581837.125 598.273
21623704.000 4582047.742 610.137
21623704.000 4581979.305 608.163
21623704.000 4587643.336 384.520
21623704.000 4585618.336 344.797
21623704.000 4588993.656 419.864
21623704.000 4587133.383 376.971
21623704.000 4588603.906 422.155
21623704.000 4591865.930 439.276
21623704.000 4598328.297 512.856
21623704.000 4596965.148 522.355
21623391.875 4600000.000 468.771
21616753.203 4600000.000 428.766
21614528.250 4600000.000 379.711
21615834.953 4600000.000 433.863
21618690.695 4600000.000 474.960
21623571.227 4600000.000 462.898
21617857.656 4600000.000 462.446
21623219.875 4600000.000 489.437
21622297.656 4600000.000 578.249
21618745.586 4600000.000 478.719
21621785.547 4600000.000 601.588
21619003.109 4600000.000 508.495
21620356.969 4600000.000 639.635
21620001.234 4600000.000 634.634
21620119.172 4600000.000 641.888
21593244.031 4600000.000 427.044
21608857.320 4600000.000 461.893
21610860.547 4600000.000 456.778
21604852.961 4600000.000 479.711
21604264.336 4600000.000 481.144
21608303.063 4600000.000 474.700
21606124.281 4600000.000 489.500
21605912.547 4600000.000 490.456
21607558.938 4600000.000 492.675
21607412.086 4600000.000 501.256
21604358.430 4600000.000 485.904
21603503.813 4600000.000 478.095
21610139.320 4600000.000 474.240
21612603.516 4600000.000 407.180
21611747.672 4600000.000 444.405
21609049.688 4600000.000 470.062
21602484.188 4600000.000 470.282
21592582.938 4600000.000 471.561
21581028.930 4600000.000 300.688
21581015.625 4600000.000 300.620
21581178.367 4600000.000 304.842
21589740.977 4600000.000 454.973
21590708.836 4600000.000 483.584
21582412.898 4600000.000 345.109
21582688.992 4600000.000 368.301
21583708.102 4600000.000 462.472
21588202.898 4600000.000 496.937
21584223.180 4600000.000 506.305
21588608.328 4600000.000 490.533
21587539.492 4600000.000 517.057
21586905.641 4600000.000 542.681
21585531.820 4600000.000 640.861
21585944.438 4600000.000 630.844
21585709.867 4600000.000 652.062
21591204.102 4600000.000 489.073
21592497.438 4600000.000 477.317
21592087.586 4600000.000 497.934
21574226.016 4600000.000 261.679
21575258.250 4600000.000 281.557
21567928.641 4600000.000 227.765
21566433.422 4600000.000 216.826
21567939.359 4600000.000 227.970
21569235.828 4600000.000 254.387
21569895.781 4600000.000 283.395
21573877.375 4600000.000 273.857
21570452.203 4600000.000 303.789
21570918.609 4600000.000 315.219
21572634.063 4600000.000 330.070
21571854.156 4600000.000 367.445
21572956.891 4600000.000 324.483
[...]
POINT_DATA 570
COLOR_SCALARS GocadColor 4
0.501961 0.501961 0.501961 0.4
0.501961 0.501961 0.501961 0.4
0.501961 0.501961 0.501961 0.4
0.501961 0.501961 0.501961 0.4
0.501961 0.501961 0.501961 0.4
0.501961 0.501961 0.501961 0.4
0.501961 0.501961 0.501961 0.4
0.501961 0.501961 0.501961 0.4
0.501961 0.501961 0.501961 0.4
0.501961 0.501961 0.501961 0.4
0.501961 0.501961 0.501961 0.4
0.501961 0.501961 0.501961 0.4
0.501961 0.501961 0.501961 0.4
0.501961 0.501961 0.501961 0.4
0.501961 0.501961 0.501961 0.4
0.501961 0.501961 0.501961 0.4
0.501961 0.501961 0.501961 0.4
0.501961 0.501961 0.501961 0.4
0.501961 0.501961 0.501961 0.4
0.501961 0.501961 0.501961 0.4
0.501961 0.501961 0.501961 0.4
0.501961 0.501961 0.501961 0.4
0.501961 0.501961 0.501961 0.4
0.501961 0.501961 0.501961 0.4
0.501961 0.501961 0.501961 0.4
0.501961 0.501961 0.501961 0.4
0.501961 0.501961 0.501961 0.4
0.501961 0.501961 0.501961 0.4
0.501961 0.501961 0.501961 0.4
0.501961 0.501961 0.501961 0.4
0.501961 0.501961 0.501961 0.4
0.501961 0.501961 0.501961 0.4
0.501961 0.501961 0.501961 0.4
0.501961 0.501961 0.501961 0.4
0.501961 0.501961 0.501961 0.4
0.501961 0.501961 0.501961 0.4
0.501961 0.501961 0.501961 0.4
0.501961 0.501961 0.501961 0.4
0.501961 0.501961 0.501961 0.4
0.501961 0.501961 0.501961 0.4
0.501961 0.501961 0.501961 0.4
0.501961 0.501961 0.501961 0.4
0.501961 0.501961 0.501961 0.4
0.501961 0.501961 0.501961 0.4
0.501961 0.501961 0.501961 0.4
0.501961 0.501961 0.501961 0.4
0.501961 0.501961 0.501961 0.4
0.501961 0.501961 0.501961 0.4
0.501961 0.501961 0.501961 0.4
0.501961 0.501961 0.501961 0.4
0.501961 0.501961 0.501961 0.4
0.501961 0.501961 0.501961 0.4
0.501961 0.501961 0.501961 0.4
0.501961 0.501961 0.501961 0.4
0.501961 0.501961 0.501961 0.4
0.501961 0.501961 0.501961 0.4
0.501961 0.501961 0.501961 0.4
0.501961 0.501961 0.501961 0.4
0.501961 0.501961 0.501961 0.4
0.501961 0.501961 0.501961 0.4
0.501961 0.501961 0.501961 0.4
0.501961 0.501961 0.501961 0.4
0.501961 0.501961 0.501961 0.4
0.501961 0.501961 0.501961 0.4
0.501961 0.501961 0.501961 0.4
0.501961 0.501961 0.501961 0.4
0.501961 0.501961 0.501961 0.4
0.501961 0.501961 0.501961 0.4
0.501961 0.501961 0.501961 0.4
0.501961 0.501961 0.501961 0.4
0.501961 0.501961 0.501961 0.4
0.501961 0.501961 0.501961 0.4
0.501961 0.501961 0.501961 0.4
0.501961 0.501961 0.501961 0.4
0.501961 0.501961 0.501961 0.4
0.501961 0.501961 0.501961 0.4
0.501961 0.501961 0.501961 0.4
0.501961 0.501961 0.501961 0.4
0.501961 0.501961 0.501961 0.4
0.501961 0.501961 0.501961 0.4
0.501961 0.501961 0.501961 0.4
0.501961 0.501961 0.501961 0.4
0.501961 0.501961 0.501961 0.4
0.501961 0.501961 0.501961 0.4
0.501961 0.501961 0.501961 0.4
0.501961 0.501961 0.501961 0.4
0.501961 0.501961 0.501961 0.4
0.501961 0.501961 0.501961 0.4
0.501961 0.501961 0.501961 0.4
0.501961 0.501961 0.501961 0.4
0.501961 0.501961 0.501961 0.4
0.501961 0.501961 0.501961 0.4
0.501961 0.501961 0.501961 0.4
0.501961 0.501961 0.501961 0.4
0.501961 0.501961 0.501961 0.4
0.501961 0.501961 0.501961 0.4
0.501961 0.501961 0.501961 0.4
0.501961 0.501961 0.501961 0.4
0.501961 0.501961 0.501961 0.4
0.501961 0.501961 0.501961 0.4
0.501961 0.501961 0.501961 0.4
0.501961 0.501961 0.501961 0.4
0.501961 0.501961 0.501961 0.4
0.501961 0.501961 0.501961 0.4
0.501961 0.501961 0.501961 0.4
0.501961 0.501961 0.501961 0.4
0.501961 0.501961 0.501961 0.4
0.501961 0.501961 0.501961 0.4
0.501961 0.501961 0.501961 0.4
0.501961 0.501961 0.501961 0.4
0.501961 0.501961 0.501961 0.4
0.501961 0.501961 0.501961 0.4
0.501961 0.501961 0.501961 0.4
0.501961 0.501961 0.501961 0.4
0.501961 0.501961 0.501961 0.4
0.501961 0.501961 0.501961 0.4
0.501961 0.501961 0.501961 0.4
0.501961 0.501961 0.501961 0.4
0.501961 0.501961 0.501961 0.4
0.501961 0.501961 0.501961 0.4
0.501961 0.501961 0.501961 0.4
0.501961 0.501961 0.501961 0.4
0.501961 0.501961 0.501961 0.4
0.501961 0.501961 0.501961 0.4
0.501961 0.501961 0.501961 0.4
0.501961 0.501961 0.501961 0.4
0.501961 0.501961 0.501961 0.4
0.501961 0.501961 0.501961 0.4
0.501961 0.501961 0.501961 0.4
0.501961 0.501961 0.501961 0.4
0.501961 0.501961 0.501961 0.4
0.501961 0.501961 0.501961 0.4
0.501961 0.501961 0.501961 0.4
0.501961 0.501961 0.501961 0.4
0.501961 0.501961 0.501961 0.4
0.501961 0.501961 0.501961 0.4
0.501961 0.501961 0.501961 0.4
0.501961 0.501961 0.501961 0.4
0.501961 0.501961 0.501961 0.4
0.501961 0.501961 0.501961 0.4
0.501961 0.501961 0.501961 0.4
0.501961 0.501961 0.501961 0.4
0.501961 0.501961 0.501961 0.4
0.501961 0.501961 0.501961 0.4
0.501961 0.501961 0.501961 0.4
0.501961 0.501961 0.501961 0.4
0.501961 0.501961 0.501961 0.4
0.501961 0.501961 0.501961 0.4
0.501961 0.501961 0.501961 0.4
0.501961 0.501961 0.501961 0.4
0.501961 0.501961 0.501961 0.4
0.501961 0.501961 0.501961 0.4
0.501961 0.501961 0.501961 0.4
0.501961 0.501961 0.501961 0.4
0.501961 0.501961 0.501961 0.4
0.501961 0.501961 0.501961 0.4
0.501961 0.501961 0.501961 0.4
0.501961 0.501961 0.501961 0.4
0.501961 0.501961 0.501961 0.4
0.501961 0.501961 0.501961 0.4
0.501961 0.501961 0.501961 0.4
0.501961 0.501961 0.501961 0.4
0.501961 0.501961 0.501961 0.4
0.501961 0.501961 0.501961 0.4
0.501961 0.501961 0.501961 0.4
0.501961 0.501961 0.501961 0.4
0.501961 0.501961 0.501961 0.4
0.501961 0.501961 0.501961 0.4
0.501961 0.501961 0.501961 0.4
0.501961 0.501961 0.501961 0.4
0.501961 0.501961 0.501961 0.4
0.501961 0.501961 0.501961 0.4
0.501961 0.501961 0.501961 0.4
0.501961 0.501961 0.501961 0.4
0.501961 0.501961 0.501961 0.4
0.501961 0.501961 0.501961 0.4
0.501961 0.501961 0.501961 0.4
0.501961 0.501961 0.501961 0.4
0.501961 0.501961 0.501961 0.4
0.501961 0.501961 0.501961 0.4
0.501961 0.501961 0.501961 0.4
0.501961 0.501961 0.501961 0.4
0.501961 0.501961 0.501961 0.4
0.501961 0.501961 0.501961 0.4
0.501961 0.501961 0.501961 0.4
0.501961 0.501961 0.501961 0.4
0.501961 0.501961 0.501961 0.4
0.501961 0.501961 0.501961 0.4
0.501961 0.501961 0.501961 0.4
0.501961 0.501961 0.501961 0.4
0.501961 0.501961 0.501961 0.4
0.501961 0.501961 0.501961 0.4
0.501961 0.501961 0.501961 0.4
0.501961 0.501961 0.501961 0.4
0.501961 0.501961 0.501961 0.4
0.501961 0.501961 0.501961 0.4
0.501961 0.501961 0.501961 0.4
0.501961 0.501961 0.501961 0.4
0.501961 0.501961 0.501961 0.4
0.501961 0.501961 0.501961 0.4
0.501961 0.501961 0.501961 0.4
0.501961 0.501961 0.501961 0.4
0.501961 0.501961 0.501961 0.4
0.501961 0.501961 0.501961 0.4
0.501961 0.501961 0.501961 0.4
0.501961 0.501961 0.501961 0.4
0.501961 0.501961 0.501961 0.4
0.501961 0.501961 0.501961 0.4
0.501961 0.501961 0.501961 0.4
0.501961 0.501961 0.501961 0.4
0.501961 0.501961 0.501961 0.4
0.501961 0.501961 0.501961 0.4
0.501961 0.501961 0.501961 0.4
0.501961 0.501961 0.501961 0.4
0.501961 0.501961 0.501961 0.4
0.501961 0.501961 0.501961 0.4
0.501961 0.501961 0.501961 0.4
0.501961 0.501961 0.501961 0.4
0.501961 0.501961 0.501961 0.4
0.501961 0.501961 0.501961 0.4
0.501961 0.501961 0.501961 0.4
0.501961 0.501961 0.501961 0.4
0.501961 0.501961 0.501961 0.4
0.501961 0.501961 0.501961 0.4
0.501961 0.501961 0.501961 0.4
0.501961 0.501961 0.501961 0.4
0.501961 0.501961 0.501961 0.4
0.501961 0.501961 0.501961 0.4
0.501961 0.501961 0.501961 0.4
0.501961 0.501961 0.501961 0.4
0.501961 0.501961 0.501961 0.4
0.501961 0.501961 0.501961 0.4
0.501961 0.501961 0.501961 0.4
0.501961 0.501961 0.501961 0.4
0.501961 0.501961 0.501961 0.4
0.501961 0.501961 0.501961 0.4
0.501961 0.501961 0.501961 0.4
0.501961 0.501961 0.501961 0.4
0.501961 0.501961 0.501961 0.4
0.501961 0.501961 0.501961 0.4
0.501961 0.501961 0.501961 0.4
0.501961 0.501961 0.501961 0.4
0.501961 0.501961 0.501961 0.4
0.501961 0.501961 0.501961 0.4
0.501961 0.501961 0.501961 0.4
0.501961 0.501961 0.501961 0.4
0.501961 0.501961 0.501961 0.4
0.501961 0.501961 0.501961 0.4
0.501961 0.501961 0.501961 0.4
0.501961 0.501961 0.501961 0.4
0.501961 0.501961 0.501961 0.4
0.501961 0.501961 0.501961 0.4
0.501961 0.501961 0.501961 0.4
0.501961 0.501961 0.501961 0.4
0.501961 0.501961 0.501961 0.4
0.501961 0.501961 0.501961 0.4
0.501961 0.501961 0.501961 0.4
0.501961 0.501961 0.501961 0.4
0.501961 0.501961 0.501961 0.4
0.501961 0.501961 0.501961 0.4
0.501961 0.501961 0.501961 0.4
0.501961 0.501961 0.501961 0.4
0.501961 0.501961 0.501961 0.4
0.501961 0.501961 0.501961 0.4
0.501961 0.501961 0.501961 0.4
0.501961 0.501961 0.501961 0.4
0.501961 0.501961 0.501961 0.4
0.501961 0.501961 0.501961 0.4
0.501961 0.501961 0.501961 0.4
0.501961 0.501961 0.501961 0.4
0.501961 0.501961 0.501961 0.4
0.501961 0.501961 0.501961 0.4
0.501961 0.501961 0.501961 0.4
0.501961 0.501961 0.501961 0.4
0.501961 0.501961 0.501961 0.4
0.501961 0.501961 0.501961 0.4
0.501961 0.501961 0.501961 0.4
0.501961 0.501961 0.501961 0.4
0.501961 0.501961 0.501961 0.4
0.501961 0.501961 0.501961 0.4
0.501961 0.501961 0.501961 0.4
0.501961 0.501961 0.501961 0.4
0.501961 0.501961 0.501961 0.4
0.501961 0.501961 0.501961 0.4
0.501961 0.501961 0.501961 0.4
0.501961 0.501961 0.501961 0.4
0.501961 0.501961 0.501961 0.4
0.501961 0.501961 0.501961 0.4
0.501961 0.501961 0.501961 0.4
0.501961 0.501961 0.501961 0.4
0.501961 0.501961 0.501961 0.4
0.501961 0.501961 0.501961 0.4
0.501961 0.501961 0.501961 0.4
0.501961 0.501961 0.501961 0.4
0.501961 0.501961 0.501961 0.4
0.501961 0.501961 0.501961 0.4
0.501961 0.501961 0.501961 0.4
0.501961 0.501961 0.501961 0.4
0.501961 0.501961 0.501961 0.4
0.501961 0.501961 0.501961 0.4
0.501961 0.501961 0.501961 0.4
0.501961 0.501961 0.501961 0.4
0.501961 0.501961 0.501961 0.4
0.501961 0.501961 0.501961 0.4
0.501961 0.501961 0.501961 0.4
0.501961 0.501961 0.501961 0.4
0.501961 0.501961 0.501961 0.4
0.501961 0.501961 0.501961 0.4
0.501961 0.501961 0.501961 0.4
0.501961 0.501961 0.501961 0.4
0.501961 0.501961 0.501961 0.4
0.501961 0.501961 0.501961 0.4
0.501961 0.501961 0.501961 0.4
0.501961 0.501961 0.501961 0.4
0.501961 0.501961 0.501961 0.4
0.501961 0.501961 0.501961 0.4
0.501961 0.501961 0.501961 0.4
0.501961 0.501961 0.501961 0.4
0.501961 0.501961 0.501961 0.4
0.501961 0.501961 0.501961 0.4
0.501961 0.501961 0.501961 0.4
0.501961 0.501961 0.501961 0.4
0.501961 0.501961 0.501961 0.4
0.501961 0.501961 0.501961 0.4
0.501961 0.501961 0.501961 0.4
0.501961 0.501961 0.501961 0.4
0.501961 0.501961 0.501961 0.4
0.501961 0.501961 0.501961 0.4
0.501961 0.501961 0.501961 0.4
0.501961 0.501961 0.501961 0.4
0.501961 0.501961 0.501961 0.4
0.501961 0.501961 0.501961 0.4
0.501961 0.501961 0.501961 0.4
0.501961 0.501961 0.501961 0.4
0.501961 0.501961 0.501961 0.4
0.501961 0.501961 0.501961 0.4
0.501961 0.501961 0.501961 0.4
0.501961 0.501961 0.501961 0.4
0.501961 0.501961 0.501961 0.4
0.501961 0.501961 0.501961 0.4
0.501961 0.501961 0.501961 0.4
0.501961 0.501961 0.501961 0.4
0.501961 0.501961 0.501961 0.4
0.501961 0.501961 0.501961 0.4
0.501961 0.501961 0.501961 0.4
0.501961 0.501961 0.501961 0.4
0.501961 0.501961 0.501961 0.4
0.501961 0.501961 0.501961 0.4
0.501961 0.501961 0.501961 0.4
0.501961 0.501961 0.501961 0.4
0.501961 0.501961 0.501961 0.4
0.501961 0.501961 0.501961 0.4
0.501961 0.501961 0.501961 0.4
0.501961 0.501961 0.501961 0.4
0.501961 0.501961 0.501961 0.4
0.501961 0.501961 0.501961 0.4
0.501961 0.501961 0.501961 0.4
0.501961 0.501961 0.501961 0.4
0.501961 0.501961 0.501961 0.4
0.501961 0.501961 0.501961 0.4
0.501961 0.501961 0.501961 0.4
0.501961 0.501961 0.501961 0.4
0.501961 0.501961 0.501961 0.4
0.501961 0.501961 0.501961 0.4
0.501961 0.501961 0.501961 0.4
0.501961 0.501961 0.501961 0.4
0.501961 0.501961 0.501961 0.4
0.501961 0.501961 0.501961 0.4
0.501961 0.501961 0.501961 0.4
0.501961 0.501961 0.501961 0.4
0.501961 0.501961 0.501961 0.4
0.501961 0.501961 0.501961 0.4
0.501961 0.501961 0.501961 0.4
0.501961 0.501961 0.501961 0.4
0.501961 0.501961 0.501961 0.4
0.501961 0.501961 0.501961 0.4
0.501961 0.501961 0.501961 0.4
0.501961 0.501961 0.501961 0.4
0.501961 0.501961 0.501961 0.4
0.501961 0.501961 0.501961 0.4
0.501961 0.501961 0.501961 0.4
0.501961 0.501961 0.501961 0.4
0.501961 0.501961 0.501961 0.4
0.501961 0.501961 0.501961 0.4
0.501961 0.501961 0.501961 0.4
0.501961 0.501961 0.501961 0.4
0.501961 0.501961 0.501961 0.4
0.501961 0.501961 0.501961 0.4
0.501961 0.501961 0.501961 0.4
0.501961 0.501961 0.501961 0.4
0.501961 0.501961 0.501961 0.4
0.501961 0.501961 0.501961 0.4
0.501961 0.501961 0.501961 0.4
0.501961 0.501961 0.501961 0.4
0.501961 0.501961 0.501961 0.4
0.501961 0.501961 0.501961 0.4
0.501961 0.501961 0.501961 0.4
0.501961 0.501961 0.501961 0.4
0.501961 0.501961 0.501961 0.4
0.501961 0.501961 0.501961 0.4
0.501961 0.501961 0.501961 0.4
0.501961 0.501961 0.501961 0.4
0.501961 0.501961 0.501961 0.4
0.501961 0.501961 0.501961 0.4
0.501961 0.501961 0.501961 0.4
0.501961 0.501961 0.501961 0.4
0.501961 0.501961 0.501961 0.4
0.501961 0.501961 0.501961 0.4
0.501961 0.501961 0.501961 0.4
0.501961 0.501961 0.501961 0.4
0.501961 0.501961 0.501961 0.4
0.501961 0.501961 0.501961 0.4
0.501961 0.501961 0.501961 0.4
0.501961 0.501961 0.501961 0.4
0.501961 0.501961 0.501961 0.4
0.501961 0.501961 0.501961 0.4
0.501961 0.501961 0.501961 0.4
0.501961 0.501961 0.501961 0.4
0.501961 0.501961 0.501961 0.4
0.501961 0.501961 0.501961 0.4
0.501961 0.501961 0.501961 0.4
0.501961 0.501961 0.501961 0.4
0.501961 0.501961 0.501961 0.4
0.501961 0.501961 0.501961 0.4
0.501961 0.501961 0.501961 0.4
0.501961 0.501961 0.501961 0.4
0.501961 0.501961 0.501961 0.4
0.501961 0.501961 0.501961 0.4
0.501961 0.501961 0.501961 0.4
0.501961 0.501961 0.501961 0.4
0.501961 0.501961 0.501961 0.4
0.501961 0.501961 0.501961 0.4
0.501961 0.501961 0.501961 0.4
0.501961 0.501961 0.501961 0.4
0.501961 0.501961 0.501961 0.4
0.501961 0.501961 0.501961 0.4
0.501961 0.501961 0.501961 0.4
0.501961 0.501961 0.501961 0.4
0.501961 0.501961 0.501961 0.4
0.501961 0.501961 0.501961 0.4
0.501961 0.501961 0.501961 0.4
0.501961 0.501961 0.501961 0.4
0.501961 0.501961 0.501961 0.4
0.501961 0.501961 0.501961 0.4
0.501961 0.501961 0.501961 0.4
0.501961 0.501961 0.501961 0.4
0.501961 0.501961 0.501961 0.4
0.501961 0.501961 0.501961 0.4
0.501961 0.501961 0.501961 0.4
0.501961 0.501961 0.501961 0.4
0.501961 0.501961 0.501961 0.4
0.501961 0.501961 0.501961 0.4
0.501961 0.501961 0.501961 0.4
0.501961 0.501961 0.501961 0.4
0.501961 0.501961 0.501961 0.4
0.501961 0.501961 0.501961 0.4
0.501961 0.501961 0.501961 0.4
0.501961 0.501961 0.501961 0.4
0.501961 0.501961 0.501961 0.4
0.501961 0.501961 0.501961 0.4
0.501961 0.501961 0.501961 0.4
0.501961 0.501961 0.501961 0.4
0.501961 0.501961 0.501961 0.4
0.501961 0.501961 0.501961 0.4
0.501961 0.501961 0.501961 0.4
0.501961 0.501961 0.501961 0.4
0.501961 0.501961 0.501961 0.4
0.501961 0.501961 0.501961 0.4
0.501961 0.501961 0.501961 0.4
0.501961 0.501961 0.501961 0.4
0.501961 0.501961 0.501961 0.4
0.501961 0.501961 0.501961 0.4
0.501961 0.501961 0.501961 0.4
0.501961 0.501961 0.501961 0.4
0.501961 0.501961 0.501961 0.4
0.501961 0.501961 0.501961 0.4
0.501961 0.501961 0.501961 0.4
0.501961 0.501961 0.501961 0.4
0.501961 0.501961 0.501961 0.4
0.501961 0.501961 0.501961 0.4
0.501961 0.501961 0.501961 0.4
0.501961 0.501961 0.501961 0.4
0.501961 0.501961 0.501961 0.4
0.501961 0.501961 0.501961 0.4
0.501961 0.501961 0.501961 0.4
0.501961 0.501961 0.501961 0.4
0.501961 0.501961 0.501961 0.4
0.501961 0.501961 0.501961 0.4
0.501961 0.501961 0.501961 0.4
0.501961 0.501961 0.501961 0.4
0.501961 0.501961 0.501961 0.4
0.501961 0.501961 0.501961 0.4
0.501961 0.501961 0.501961 0.4
0.501961 0.501961 0.501961 0.4
0.501961 0.501961 0.501961 0.4
0.501961 0.501961 0.501961 0.4
0.501961 0.501961 0.501961 0.4
0.501961 0.501961 0.501961 0.4
0.501961 0.501961 0.501961 0.4
0.501961 0.501961 0.501961 0.4
0.501961 0.501961 0.501961 0.4
0.501961 0.501961 0.501961 0.4
0.501961 0.501961 0.501961 0.4
0.501961 0.501961 0.501961 0.4
0.501961 0.501961 0.501961 0.4
0.501961 0.501961 0.501961 0.4
0.501961 0.501961 0.501961 0.4
0.501961 0.501961 0.501961 0.4
0.501961 0.501961 0.501961 0.4
0.501961 0.501961 0.501961 0.4
0.501961 0.501961 0.501961 0.4
0.501961 0.501961 0.501961 0.4
0.501961 0.501961 0.501961 0.4
0.501961 0.501961 0.501961 0.4
0.501961 0.501961 0.501961 0.4
0.501961 0.501961 0.501961 0.4
0.501961 0.501961 0.501961 0.4
0.501961 0.501961 0.501961 0.4
0.501961 0.501961 0.501961 0.4
0.501961 0.501961 0.501961 0.4
0.501961 0.501961 0.501961 0.4
0.501961 0.501961 0.501961 0.4
0.501961 0.501961 0.501961 0.4
0.501961 0.501961 0.501961 0.4
0.501961 0.501961 0.501961 0.4
0.501961 0.501961 0.501961 0.4
0.501961 0.501961 0.501961 0.4
0.501961 0.501961 0.501961 0.4
0.501961 0.501961 0.501961 0.4
0.501961 0.501961 0.501961 0.4
0.501961 0.501961 0.501961 0.4
0.501961 0.501961 0.501961 0.4
0.501961 0.501961 0.501961 0.4
0.501961 0.501961 0.501961 0.4
0.501961 0.501961 0.501961 0.4
0.501961 0.501961 0.501961 0.4
0.501961 0.501961 0.501961 0.4
0.501961 0.501961 0.501961 0.4
0.501961 0.501961 0.501961 0.4
0.501961 0.501961 0.501961 0.4
0.501961 0.501961 0.501961 0.4
0.501961 0.501961 0.501961 0.4
0.501961 0.501961 0.501961 0.4
0.501961 0.501961 0.501961 0.4
0.501961 0.501961 0.501961 0.4
0.501961 0.501961 0.501961 0.4
0.501961 0.501961 0.501961 0.4
0.501961 0.501961 0.501961 0.4
0.501961 0.501961 0.501961 0.4
0.501961 0.501961 0.501961 0.4
0.501961 0.501961 0.501961 0.4
0.501961 0.501961 0.501961 0.4
0.501961 0.501961 0.501961 0.4
0.501961 0.501961 0.501961 0.4
0.501961 0.501961 0.501961 0.4
0.501961 0.501961 0.501961 0.4
0.501961 0.501961 0.501961 0.4
0.501961 0.501961 0.501961 0.4
0.501961 0.501961 0.501961 0.4
0.501961 0.501961 0.501961 0.4
0.501961 0.501961 0.501961 0.4
0.501961 0.501961 0.501961 0.4
0.501961 0.501961 0.501961 0.4
0.501961 0.501961 0.501961 0.4
0.501961 0.501961 0.501961 0.4
0.501961 0.501961 0.501961 0.4
0.501961 0.501961 0.501961 0.4
0.501961 0.501961 0.501961 0.4
0.501961 0.501961 0.501961 0.4
0.501961 0.501961 0.501961 0.4

