# vtk DataFile Version 3.0
Gocad Well to VTK
ASCII
DATASET POLYDATA
POINTS 2 float
21508918.000 4554740.000 42.322
21508918.000 4554740.000 -1252.858

LINES 1 3
2 0 1

POINT_DATA 2
COLOR_SCALARS GocadColor 4
0 1 1 1
0 1 1 1

