# vtk DataFile Version 3.0
Gocad TSurf to VTK
ASCII
DATASET POLYDATA
POINTS 4 float
21623704.000 4600000.000 -5000.000
21501538.000 4542155.000 -5000.000
21501538.000 4600000.000 -5000.000
21623704.000 4542155.000 -5000.000

POLYGONS 2 8
3 0 3 1
3 0 1 2

POINT_DATA 4
COLOR_SCALARS GocadColor 4
0.313725 0.623529 0.411765 0.9
0.313725 0.623529 0.411765 0.9
0.313725 0.623529 0.411765 0.9
0.313725 0.623529 0.411765 0.9

