# vtk DataFile Version 3.0
Gocad VSet to VTK
ASCII
DATASET POLYDATA
POINTS 6 float
21526430.125 4588674.656 48.109
21513977.625 4570885.375 49.378
21506035.984 4565485.047 50.045
21501398.063 4556781.016 56.136
21563978.219 4573744.359 165.410
21593838.797 4574062.016 247.808

VERTICES 6 12
1 0
1 1
1 2
1 3
1 4
1 5

POINT_DATA 6
COLOR_SCALARS GocadColor 4
0 0 1 1
0 0 1 1
0 0 1 1
0 0 1 1
0 0 1 1
0 0 1 1

