# vtk DataFile Version 3.0
Gocad TSurf to VTK
ASCII
DATASET POLYDATA
POINTS 96 float
21599027.656 4577319.484 -2158.375
21597667.602 4576704.797 -3579.188
21598963.477 4577536.305 -2512.534
21598890.547 4577535.789 -2626.613
21599187.320 4577534.461 -2169.616
21598292.602 4576329.797 -2158.375
21599285.125 4576449.641 -737.562
21597304.539 4576430.688 -3509.609
21597056.453 4577165.836 -4992.209
21597566.477 4575781.578 -2019.218
21596840.359 4575233.355 -2019.218
21598917.602 4575954.797 -737.562
21597828.422 4575132.469 -528.827
21597465.359 4574858.355 -528.827
21599468.594 4575589.445 408.471
21597787.867 4574472.023 509.836
21595990.453 4573156.363 -785.071
21595857.086 4574098.695 -2190.047
21596084.555 4572211.430 554.922
21595498.820 4572589.031 -785.071
21594873.820 4572964.031 -2190.047
21595487.805 4571971.793 524.389
21595702.734 4572048.227 556.495
21595274.820 4571865.324 558.258
21593553.953 4571129.766 565.348
21593441.594 4571723.922 -757.057
21592755.852 4571435.555 -757.057
21593502.336 4572387.293 -2171.371
21592064.914 4570939.344 577.024
21591768.898 4571344.648 -817.232
21591439.914 4571314.344 -817.232
21592130.852 4571810.555 -2171.371
21591472.883 4571749.949 -2211.488
21593563.078 4573050.664 -3585.686
21594248.820 4573339.031 -3595.023
21591505.852 4572185.555 -3585.686
21593623.820 4573714.031 -5000.000
21590880.852 4572560.555 -5000.000
21591176.867 4572155.250 -3605.744
21590189.914 4572064.344 -3605.744
21590814.914 4571689.344 -2211.488
21589564.914 4572439.344 -5000.000
21589710.211 4572160.789 -3451.074
21589385.688 4572442.758 -3484.572
21589206.453 4572446.172 -1969.144
21587946.578 4572732.102 -3484.572
21588247.055 4572639.066 -1969.144
21587646.102 4572825.133 -5000.000
21587168.016 4572791.473 -3580.596
21586689.938 4572757.813 -2161.192
21586348.000 4573953.000 -5000.000
21586194.438 4573637.375 -3580.596
21583858.766 4573815.492 -3580.596
21584483.766 4573440.492 -2161.192
21583233.766 4574190.492 -5000.000
21586040.883 4573321.746 -2161.192
21585108.766 4573065.492 -741.788
21585887.320 4573006.117 -741.788
21586211.852 4572724.148 -741.788
21585544.563 4573179.070 649.434
21588547.523 4572546.031 -453.717
21588799.867 4572433.055 570.686
21589027.227 4572449.586 -453.717
21590000.805 4571603.688 -353.223
21589855.508 4571882.238 -1902.149
21590076.047 4571455.684 618.655
21591938.688 4570972.117 579.666
21591972.672 4570965.191 564.549
21595723.727 4575041.023 -3595.023
21595638.602 4575993.766 -5058.223
21596215.359 4575608.359 -3509.609
21600090.977 4577157.109 -282.020
21600082.266 4577155.688 -295.396
21600318.039 4577172.211 34.374
21600420.547 4577178.953 177.291
21599947.172 4577251.211 -662.307
21599894.516 4577270.125 -780.468
21599700.320 4577365.078 -1188.384
21599425.891 4577499.469 -1765.075
21599358.297 4577532.578 -1907.126
21599196.953 4577534.375 -2154.850
21597704.531 4577552.883 -4457.853
21597452.906 4577518.297 -4957.405
21597773.297 4577542.125 -4344.114
21597923.680 4577538.719 -4117.518
21597932.445 4577538.500 -4104.293
21597959.688 4577537.953 -4063.306
21598281.484 4577531.344 -3579.188
21598637.242 4577534.070 -3022.937
21597435.781 4577515.906 -4991.305
21591972.672 4570965.191 564.549
21592064.914 4570939.344 577.024
21591938.688 4570972.117 579.666
21595487.805 4571971.793 524.389
21595702.734 4572048.227 556.495
21595274.820 4571865.324 558.258

POLYGONS 134 536
3 15 16 13
3 34 36 68
3 21 19 18
3 1 83 84
3 19 25 20
3 8 82 81
3 59 56 57
3 14 6 71
3 75 6 76
3 85 1 84
3 53 55 56
3 7 8 1
3 2 1 3
3 43 41 42
3 14 12 11
3 25 27 20
3 6 77 76
3 45 41 43
3 24 25 19
3 18 19 16
3 53 51 55
3 14 71 73
3 14 15 12
3 66 65 63
3 37 36 35
3 20 34 17
3 20 27 34
3 23 24 19
3 58 49 46
3 30 29 28
3 31 27 26
3 33 36 34
3 63 62 64
3 1 8 81
3 31 33 27
3 46 44 60
3 40 64 42
3 29 26 28
3 26 27 25
3 26 24 28
3 64 44 42
3 35 33 31
3 49 48 45
3 0 79 78
3 47 41 45
3 0 80 79
3 42 41 39
3 29 32 31
3 11 9 5
3 60 44 62
3 13 9 12
3 44 43 42
3 27 33 34
3 0 2 4
3 52 50 51
3 5 9 7
3 39 38 40
3 35 36 33
3 34 68 17
3 59 57 58
3 39 37 38
3 38 37 35
3 63 30 28
3 61 60 62
3 45 43 46
3 5 0 6
3 24 26 25
3 62 44 64
3 67 63 28
3 21 23 19
3 71 6 72
3 87 1 86
3 59 58 60
3 11 12 9
3 46 43 44
3 21 18 22
3 88 1 87
3 13 16 17
3 5 1 0
3 52 51 53
3 60 58 46
3 0 1 2
3 11 5 6
3 67 66 63
3 20 17 16
3 54 50 52
3 48 47 45
3 40 32 30
3 30 32 29
3 15 18 16
3 14 11 6
3 5 7 1
3 10 17 68
3 65 61 63
3 57 55 58
3 10 7 9
3 51 48 49
3 61 59 60
3 31 32 35
3 32 38 35
3 68 69 70
3 86 1 85
3 40 42 39
3 6 75 72
3 41 37 39
3 6 0 77
3 1 88 3
3 70 8 7
3 30 63 64
3 10 9 13
3 26 29 31
3 10 68 70
3 30 64 40
3 8 89 82
3 15 13 12
3 69 8 70
3 77 0 78
3 36 69 68
3 74 14 73
3 55 51 49
3 40 38 32
3 56 55 57
3 61 62 63
3 1 81 83
3 55 49 58
3 50 47 48
3 51 50 48
3 46 49 45
3 19 20 16
3 0 4 80
3 13 17 10
3 70 7 10
3 90 91 92
3 93 94 95

POINT_DATA 96
COLOR_SCALARS GocadColor 4
1 0 0 0.5
1 0 0 0.5
1 0 0 0.5
1 0 0 0.5
1 0 0 0.5
1 0 0 0.5
1 0 0 0.5
1 0 0 0.5
1 0 0 0.5
1 0 0 0.5
1 0 0 0.5
1 0 0 0.5
1 0 0 0.5
1 0 0 0.5
1 0 0 0.5
1 0 0 0.5
1 0 0 0.5
1 0 0 0.5
1 0 0 0.5
1 0 0 0.5
1 0 0 0.5
1 0 0 0.5
1 0 0 0.5
1 0 0 0.5
1 0 0 0.5
1 0 0 0.5
1 0 0 0.5
1 0 0 0.5
1 0 0 0.5
1 0 0 0.5
1 0 0 0.5
1 0 0 0.5
1 0 0 0.5
1 0 0 0.5
1 0 0 0.5
1 0 0 0.5
1 0 0 0.5
1 0 0 0.5
1 0 0 0.5
1 0 0 0.5
1 0 0 0.5
1 0 0 0.5
1 0 0 0.5
1 0 0 0.5
1 0 0 0.5
1 0 0 0.5
1 0 0 0.5
1 0 0 0.5
1 0 0 0.5
1 0 0 0.5
1 0 0 0.5
1 0 0 0.5
1 0 0 0.5
1 0 0 0.5
1 0 0 0.5
1 0 0 0.5
1 0 0 0.5
1 0 0 0.5
1 0 0 0.5
1 0 0 0.5
1 0 0 0.5
1 0 0 0.5
1 0 0 0.5
1 0 0 0.5
1 0 0 0.5
1 0 0 0.5
1 0 0 0.5
1 0 0 0.5
1 0 0 0.5
1 0 0 0.5
1 0 0 0.5
1 0 0 0.5
1 0 0 0.5
1 0 0 0.5
1 0 0 0.5
1 0 0 0.5
1 0 0 0.5
1 0 0 0.5
1 0 0 0.5
1 0 0 0.5
1 0 0 0.5
1 0 0 0.5
1 0 0 0.5
1 0 0 0.5
1 0 0 0.5
1 0 0 0.5
1 0 0 0.5
1 0 0 0.5
1 0 0 0.5
1 0 0 0.5
1 0 0 0.5
1 0 0 0.5
1 0 0 0.5
1 0 0 0.5
1 0 0 0.5
1 0 0 0.5

