# vtk DataFile Version 3.0
Gocad TSurf to VTK
ASCII
DATASET POLYDATA
POINTS 218 float
21569200.984 4557590.297 -3600.000
21568764.125 4557779.797 -3600.000
21568851.500 4557660.816 -2200.000
21568572.422 4557853.641 -2200.000
21569142.734 4557534.488 -2200.000
21569259.219 4557646.109 -5000.000
21569237.500 4557537.293 -3600.000
21568676.766 4557898.773 -5000.000
21568624.594 4557876.207 -3600.000
21568561.000 4557907.883 -3600.000
21567997.672 4558378.910 -3600.000
21568069.688 4558231.016 -2200.000
21567925.656 4558526.809 -5000.000
21567819.250 4558468.855 -3600.000
21567712.828 4558410.906 -2200.000
21567437.109 4558915.156 -3600.000
21567458.063 4558708.438 -2200.000
21567416.141 4559121.875 -5000.000
21567287.109 4558982.656 -3600.000
21567158.063 4558843.438 -2200.000
21567064.563 4559409.898 -3600.000
21567009.703 4559128.266 -2200.000
21567119.406 4559691.531 -5000.000
21566886.313 4559402.574 -3600.000
21566779.375 4559430.176 -3600.000
21566653.188 4559113.621 -2200.000
21566633.750 4559493.340 -3600.000
21566439.313 4559168.820 -2200.000
21566390.109 4560516.551 -3600.000
21565985.656 4559977.289 -2200.000
21566454.828 4560634.965 -3906.010
21566513.500 4560612.883 -4060.648
21566269.750 4560617.191 -3600.000
21566180.875 4560604.645 -3461.429
21566071.656 4560589.223 -3291.110
21565610.109 4560291.309 -2200.000
21565852.125 4560567.773 -2928.889
21565581.219 4559438.031 -800.000
21566148.094 4559295.148 -2200.000
21565017.875 4559909.059 -800.000
21565355.344 4560588.844 -2200.000
21565127.109 4559010.570 511.256
21565662.422 4559096.961 -800.000
21564443.000 4559531.070 430.434
21564635.750 4560355.359 -800.000
21564060.547 4560047.563 355.322
21564413.203 4560782.602 -800.000
21564574.469 4560786.836 -1072.057
21563697.906 4560580.102 284.446
21564092.063 4560861.316 -370.505
21564403.078 4560825.109 -800.000
21564085.969 4560863.906 -362.719
21563845.313 4560963.172 -54.474
21563800.422 4560983.328 6.595
21563651.188 4561050.086 209.701
21563606.969 4561070.219 269.786
21564440.813 4560816.414 -861.221
21564527.625 4560796.398 -1002.092
21564528.219 4560796.250 -1003.054
21564529.453 4560795.938 -1005.033
21564535.188 4560794.797 -1013.579
21564559.813 4560789.805 -1050.235
21564560.016 4560789.758 -1050.545
21564562.078 4560789.340 -1053.606
21564560.313 4560789.699 -1050.995
21564562.141 4560789.328 -1053.718
21565013.594 4560698.195 -1726.030
21565252.156 4560650.039 -2081.311
21565331.922 4560633.816 -2200.000
21565406.516 4560618.645 -2310.996
21565431.531 4560613.559 -2348.203
21565622.953 4560587.145 -2605.215
21565753.719 4560569.168 -2780.885
21565800.719 4560562.754 -2844.076
21565759.219 4558646.109 600.000
21566099.281 4558907.465 -800.000
21566186.969 4558535.715 600.000
21566420.094 4558824.668 -800.000
21566900.000 4558565.000 600.000
21566954.844 4558846.633 -800.000
21567029.031 4558704.219 -800.000
21567479.031 4558501.719 -800.000
21567606.406 4558352.953 -800.000
21567500.000 4558295.000 600.000
21568141.688 4558083.117 -800.000
21568445.234 4557916.996 -2200.000
21568205.219 4557950.352 542.102
21568329.469 4557926.105 -800.000
21568536.531 4557759.945 535.023
21568520.266 4557831.078 -800.000
21568938.875 4557541.840 -800.000
21569028.453 4557403.473 512.848
21569084.500 4557478.676 -800.000
21569215.781 4557428.477 -2200.000
21569194.078 4557319.664 -800.000
21569429.656 4557373.281 -2200.000
21569301.016 4557292.063 -800.000
21569558.313 4557454.496 -3600.000
21569595.578 4557350.273 -3600.000
21569686.969 4557535.715 -5000.000
21569622.156 4557281.629 -3600.000
21569504.172 4557164.832 -2200.000
21569648.469 4557221.578 -3600.000
21569557.328 4557027.539 -2200.000
21570183.234 4557243.543 -3600.000
21569966.469 4556922.086 -2200.000
21570400.000 4557565.000 -5000.000
21570633.234 4557041.043 -3600.000
21570266.469 4556787.086 -2200.000
21571000.000 4557295.000 -5000.000
21570619.500 4556931.500 -3600.000
21570637.344 4556881.883 -3600.000
21570239.000 4556568.000 -2200.000
21570648.641 4556795.406 -3600.000
21570274.672 4556468.766 -2200.000
21570659.547 4556725.633 -3600.000
21570297.281 4556295.809 -2200.000
21571194.828 4556455.797 -3600.000
21570675.953 4555976.371 -2200.000
21571713.703 4556935.219 -5000.000
21571385.625 4556360.766 -3600.000
21570803.156 4555913.020 -2200.000
21571968.094 4556808.512 -5000.000
21571804.234 4556071.531 -3600.000
21571082.234 4555720.195 -2200.000
21572526.250 4556422.863 -5000.000
21571913.813 4555912.516 -3600.000
21571155.281 4555614.184 -2200.000
21572672.359 4556210.848 -5000.000
21572025.578 4555599.844 -3600.000
21571229.797 4555405.738 -2200.000
21572821.375 4555793.953 -5000.000
21572105.313 4555393.906 -3600.000
21571282.953 4555268.445 -2200.000
21572927.688 4555519.367 -5000.000
21572184.266 4555213.758 -3600.000
21571335.578 4555148.344 -2200.000
21573032.938 4555279.168 -5000.000
21572978.000 4554841.000 -5000.000
21572143.047 4554885.133 -3600.000
21572217.703 4554560.727 -3600.000
21571508.141 4554325.207 -2303.607
21572271.219 4554411.875 -3600.000
21571676.266 4554235.523 -2529.601
21573049.359 4554642.531 -5000.000
21573094.563 4554296.617 -5000.000
21572305.125 4554152.441 -3600.000
21571737.969 4554172.543 -2622.200
21572337.859 4553943.121 -3600.000
21572007.391 4553912.402 -3021.949
21573138.219 4554017.523 -5000.000
21572344.156 4553852.891 -3600.000
21572407.813 4553576.262 -3600.000
21572227.531 4553705.746 -3346.749
21572680.250 4553380.594 -3982.700
21572782.313 4553307.219 -4126.041
21573286.125 4552933.891 -4837.195
21573372.016 4552869.840 -4958.270
21572094.672 4553801.164 -3160.125
21572049.547 4553858.672 -3088.690
21571907.453 4554005.461 -2874.740
21571857.141 4554052.324 -2800.608
21571840.719 4554067.629 -2776.445
21571635.609 4554255.867 -2475.372
21571628.125 4554259.609 -2465.400
21571531.688 4554307.848 -2336.815
21571434.641 4554379.367 -2200.000
21571308.109 4554929.262 -2200.000
21571392.797 4554410.199 -2141.020
21570642.484 4555053.820 -1065.253
21570634.594 4555094.316 -1043.633
21570660.109 4554963.512 -1113.465
21571108.125 4554625.180 -1741.786
21570599.406 4555109.156 -997.883
21570569.750 4555121.672 -959.291
21570503.563 4555149.543 -873.186
21570493.547 4555154.242 -859.992
21570447.938 4555175.617 -800.000
21570434.000 4555211.633 -800.000
21570408.563 4555194.203 -748.156
21570396.750 4555315.855 -800.000
21570315.875 4555242.590 -624.692
21570249.578 4555251.355 -544.282
21570360.219 4555368.859 -800.000
21570220.688 4555465.270 -800.000
21570157.094 4555496.945 -800.000
21570056.719 4555218.316 -327.918
21570319.109 4556156.262 -2200.000
21569978.656 4555586.891 -800.000
21569945.922 4555796.215 -800.000
21569912.016 4556055.648 -800.000
21569597.609 4555624.727 334.497
21569587.828 4555650.805 353.994
21569668.250 4555422.543 189.373
21569687.313 4555378.582 153.518
21569865.969 4555200.945 -109.598
21569891.641 4555175.402 -147.391
21569896.031 4555176.504 -152.141
21569906.266 4555179.203 -163.411
21570015.859 4555207.590 -283.271
21569489.547 4555787.480 510.882
21569478.813 4555822.527 513.032
21569858.500 4556204.500 -800.000
21569523.031 4556265.957 509.331
21569899.703 4556533.125 -800.000
21569749.703 4556600.625 -800.000
21569571.453 4556593.305 -800.000
21569609.969 4556907.441 -2200.000
21569396.703 4556573.086 511.592
21569492.500 4556773.453 -800.000
21569315.625 4556785.422 516.130
21569412.781 4556979.395 -800.000
21569164.781 4557148.941 512.002
21570074.375 4555223.016 -347.295
21570104.719 4555228.023 -381.546
21566692.688 4560544.992 -4532.500
21566789.563 4560508.172 -4787.487
21566856.031 4560482.977 -4962.473

POLYGONS 319 1276
3 9 11 85
3 114 116 113
3 52 53 48
3 178 179 177
3 167 139 136
3 130 126 127
3 116 187 115
3 92 91 94
3 91 212 94
3 204 202 112
3 63 62 46
3 37 41 42
3 0 1 2
3 123 122 120
3 4 2 90
3 190 201 200
3 85 89 3
3 129 131 128
3 190 192 191
3 13 14 10
3 121 184 183
3 0 2 4
3 140 141 165
3 111 114 113
3 185 188 199
3 101 211 103
3 202 190 114
3 33 34 29
3 36 73 35
3 81 83 82
3 12 17 15
3 89 90 2
3 155 150 154
3 133 174 173
3 66 47 44
3 117 119 109
3 5 1 0
3 89 88 90
3 72 71 35
3 209 206 207
3 0 4 6
3 121 120 117
3 84 86 87
3 78 83 81
3 87 89 85
3 44 43 39
3 13 16 14
3 7 12 10
3 49 48 46
3 80 78 81
3 18 21 19
3 87 88 89
3 188 189 194
3 79 78 80
3 5 6 97
3 140 138 139
3 12 13 10
3 142 138 140
3 63 64 62
3 8 3 1
3 142 144 138
3 85 84 87
3 49 51 48
3 133 132 129
3 68 67 40
3 108 112 110
3 146 145 142
3 178 130 127
3 41 74 42
3 35 71 40
3 26 29 38
3 23 21 20
3 32 29 28
3 153 151 158
3 53 54 48
3 94 212 96
3 107 109 106
3 77 79 25
3 5 0 6
3 3 89 2
3 178 127 180
3 82 84 11
3 9 3 8
3 193 189 191
3 170 133 173
3 159 151 149
3 182 184 214
3 98 101 100
3 196 188 195
3 14 82 11
3 167 172 168
3 95 101 98
3 97 99 5
3 61 60 46
3 67 66 44
3 103 209 207
3 178 180 181
3 140 139 141
3 51 52 48
3 130 178 177
3 96 212 211
3 187 188 185
3 188 197 198
3 46 45 44
3 215 31 22
3 181 180 182
3 117 118 121
3 95 96 101
3 43 41 39
3 150 152 154
3 12 15 13
3 205 203 204
3 109 115 117
3 93 94 96
3 17 22 20
3 136 135 132
3 4 90 92
3 67 44 40
3 13 15 16
3 62 61 46
3 112 202 114
3 124 120 121
3 47 63 46
3 102 207 105
3 142 140 143
3 83 86 84
3 167 171 172
3 4 92 93
3 208 203 206
3 110 112 111
3 58 57 46
3 190 200 192
3 107 106 104
3 74 76 75
3 6 93 95
3 99 97 98
3 108 107 104
3 216 22 217
3 88 91 90
3 189 190 191
3 7 9 8
3 14 81 82
3 99 100 102
3 42 75 38
3 148 146 149
3 44 47 46
3 24 25 23
3 167 168 166
3 110 109 107
3 104 102 105
3 203 201 202
3 124 123 120
3 146 160 149
3 75 77 27
3 204 203 202
3 86 88 87
3 39 37 35
3 132 134 131
3 135 138 137
3 216 215 22
3 126 128 125
3 197 188 196
3 71 70 40
3 133 175 174
3 97 95 98
3 3 2 1
3 212 210 211
3 184 185 186
3 120 122 119
3 42 74 75
3 194 189 193
3 90 91 92
3 44 39 40
3 189 188 187
3 19 21 79
3 147 142 143
3 38 37 42
3 34 36 35
3 146 162 161
3 32 33 29
3 30 28 22
3 109 110 111
3 207 206 205
3 25 79 21
3 135 134 132
3 30 32 28
3 18 20 21
3 141 139 166
3 35 37 29
3 45 43 44
3 104 105 108
3 115 187 118
3 133 130 175
3 206 203 205
3 143 140 163
3 38 27 26
3 130 176 175
3 213 184 186
3 129 128 126
3 19 16 15
3 110 107 108
3 117 115 118
3 57 56 46
3 76 78 77
3 163 140 164
3 14 16 81
3 164 140 165
3 108 204 112
3 142 145 144
3 99 98 100
3 19 79 80
3 113 116 115
3 25 21 23
3 146 142 147
3 210 208 209
3 160 146 161
3 199 188 198
3 7 10 9
3 70 69 40
3 151 148 149
3 4 93 6
3 96 211 101
3 40 39 35
3 171 167 169
3 127 126 123
3 77 78 79
3 183 184 182
3 105 207 205
3 132 131 129
3 22 28 26
3 29 34 35
3 151 150 148
3 22 24 23
3 180 127 124
3 19 80 16
3 82 83 84
3 47 65 63
3 22 26 24
3 22 23 20
3 109 113 115
3 121 118 184
3 176 130 177
3 104 106 99
3 92 94 93
3 127 123 124
3 38 75 27
3 190 189 116
3 120 119 117
3 18 19 15
3 202 201 190
3 148 145 146
3 136 170 169
3 162 146 147
3 136 133 170
3 118 187 185
3 118 185 184
3 14 11 10
3 17 20 18
3 209 208 206
3 69 68 40
3 109 111 113
3 56 50 46
3 130 129 126
3 123 125 122
3 211 210 209
3 75 76 77
3 39 41 37
3 17 18 15
3 31 30 22
3 100 103 102
3 180 124 183
3 151 153 152
3 178 181 179
3 188 194 195
3 95 93 96
3 186 185 199
3 116 189 187
3 105 205 204
3 85 11 84
3 136 132 133
3 5 7 1
3 167 136 169
3 211 209 103
3 73 72 35
3 136 139 135
3 180 183 182
3 54 55 48
3 27 77 25
3 26 27 24
3 133 129 130
3 156 150 155
3 60 59 46
3 26 28 29
3 158 151 159
3 99 102 104
3 7 8 1
3 148 150 145
3 183 124 121
3 59 58 46
3 80 81 16
3 139 138 135
3 50 49 46
3 27 25 24
3 114 190 116
3 108 105 204
3 48 45 46
3 135 137 134
3 38 29 37
3 139 167 166
3 101 103 100
3 85 3 9
3 112 114 111
3 9 10 11
3 157 150 156
3 97 6 95
3 126 125 123
3 150 151 152
3 103 207 102
3 214 184 213

POINT_DATA 218
COLOR_SCALARS GocadColor 4
1 0 0 0.5
1 0 0 0.5
1 0 0 0.5
1 0 0 0.5
1 0 0 0.5
1 0 0 0.5
1 0 0 0.5
1 0 0 0.5
1 0 0 0.5
1 0 0 0.5
1 0 0 0.5
1 0 0 0.5
1 0 0 0.5
1 0 0 0.5
1 0 0 0.5
1 0 0 0.5
1 0 0 0.5
1 0 0 0.5
1 0 0 0.5
1 0 0 0.5
1 0 0 0.5
1 0 0 0.5
1 0 0 0.5
1 0 0 0.5
1 0 0 0.5
1 0 0 0.5
1 0 0 0.5
1 0 0 0.5
1 0 0 0.5
1 0 0 0.5
1 0 0 0.5
1 0 0 0.5
1 0 0 0.5
1 0 0 0.5
1 0 0 0.5
1 0 0 0.5
1 0 0 0.5
1 0 0 0.5
1 0 0 0.5
1 0 0 0.5
1 0 0 0.5
1 0 0 0.5
1 0 0 0.5
1 0 0 0.5
1 0 0 0.5
1 0 0 0.5
1 0 0 0.5
1 0 0 0.5
1 0 0 0.5
1 0 0 0.5
1 0 0 0.5
1 0 0 0.5
1 0 0 0.5
1 0 0 0.5
1 0 0 0.5
1 0 0 0.5
1 0 0 0.5
1 0 0 0.5
1 0 0 0.5
1 0 0 0.5
1 0 0 0.5
1 0 0 0.5
1 0 0 0.5
1 0 0 0.5
1 0 0 0.5
1 0 0 0.5
1 0 0 0.5
1 0 0 0.5
1 0 0 0.5
1 0 0 0.5
1 0 0 0.5
1 0 0 0.5
1 0 0 0.5
1 0 0 0.5
1 0 0 0.5
1 0 0 0.5
1 0 0 0.5
1 0 0 0.5
1 0 0 0.5
1 0 0 0.5
1 0 0 0.5
1 0 0 0.5
1 0 0 0.5
1 0 0 0.5
1 0 0 0.5
1 0 0 0.5
1 0 0 0.5
1 0 0 0.5
1 0 0 0.5
1 0 0 0.5
1 0 0 0.5
1 0 0 0.5
1 0 0 0.5
1 0 0 0.5
1 0 0 0.5
1 0 0 0.5
1 0 0 0.5
1 0 0 0.5
1 0 0 0.5
1 0 0 0.5
1 0 0 0.5
1 0 0 0.5
1 0 0 0.5
1 0 0 0.5
1 0 0 0.5
1 0 0 0.5
1 0 0 0.5
1 0 0 0.5
1 0 0 0.5
1 0 0 0.5
1 0 0 0.5
1 0 0 0.5
1 0 0 0.5
1 0 0 0.5
1 0 0 0.5
1 0 0 0.5
1 0 0 0.5
1 0 0 0.5
1 0 0 0.5
1 0 0 0.5
1 0 0 0.5
1 0 0 0.5
1 0 0 0.5
1 0 0 0.5
1 0 0 0.5
1 0 0 0.5
1 0 0 0.5
1 0 0 0.5
1 0 0 0.5
1 0 0 0.5
1 0 0 0.5
1 0 0 0.5
1 0 0 0.5
1 0 0 0.5
1 0 0 0.5
1 0 0 0.5
1 0 0 0.5
1 0 0 0.5
1 0 0 0.5
1 0 0 0.5
1 0 0 0.5
1 0 0 0.5
1 0 0 0.5
1 0 0 0.5
1 0 0 0.5
1 0 0 0.5
1 0 0 0.5
1 0 0 0.5
1 0 0 0.5
1 0 0 0.5
1 0 0 0.5
1 0 0 0.5
1 0 0 0.5
1 0 0 0.5
1 0 0 0.5
1 0 0 0.5
1 0 0 0.5
1 0 0 0.5
1 0 0 0.5
1 0 0 0.5
1 0 0 0.5
1 0 0 0.5
1 0 0 0.5
1 0 0 0.5
1 0 0 0.5
1 0 0 0.5
1 0 0 0.5
1 0 0 0.5
1 0 0 0.5
1 0 0 0.5
1 0 0 0.5
1 0 0 0.5
1 0 0 0.5
1 0 0 0.5
1 0 0 0.5
1 0 0 0.5
1 0 0 0.5
1 0 0 0.5
1 0 0 0.5
1 0 0 0.5
1 0 0 0.5
1 0 0 0.5
1 0 0 0.5
1 0 0 0.5
1 0 0 0.5
1 0 0 0.5
1 0 0 0.5
1 0 0 0.5
1 0 0 0.5
1 0 0 0.5
1 0 0 0.5
1 0 0 0.5
1 0 0 0.5
1 0 0 0.5
1 0 0 0.5
1 0 0 0.5
1 0 0 0.5
1 0 0 0.5
1 0 0 0.5
1 0 0 0.5
1 0 0 0.5
1 0 0 0.5
1 0 0 0.5
1 0 0 0.5
1 0 0 0.5
1 0 0 0.5
1 0 0 0.5
1 0 0 0.5
1 0 0 0.5
1 0 0 0.5
1 0 0 0.5
1 0 0 0.5
1 0 0 0.5
1 0 0 0.5
1 0 0 0.5
1 0 0 0.5
1 0 0 0.5
1 0 0 0.5

