# vtk DataFile Version 3.0
Gocad TSurf to VTK
ASCII
DATASET POLYDATA
POINTS 1031 float
21533590.000 4555174.000 -348.514
21533870.000 4556138.000 106.843
21533590.000 4555174.000 -348.483
21533588.000 4555172.500 -347.888
21533606.000 4555189.500 -354.704
21533720.000 4555293.500 -396.198
21533720.000 4555293.500 -396.222
21533764.000 4555333.500 -412.658
21534100.000 4555616.500 -555.006
21534128.000 4555640.500 -566.641
21534230.000 4555720.500 -613.748
21534248.000 4555735.000 -622.313
21534558.000 4556294.500 96.463
21534248.000 4555735.000 -622.298
21534204.000 4556216.500 105.326
21533872.000 4556138.500 107.276
21534506.000 4556283.500 98.489
21534558.000 4556295.500 97.944
21534612.000 4556331.500 97.756
21535748.000 4556504.500 -545.777
21535748.000 4556504.500 -545.772
21535762.000 4556512.500 -546.620
21535782.000 4556524.500 -547.938
21535782.000 4556525.000 -547.966
21534944.000 4556550.000 96.600
21535842.000 4556562.500 -550.626
21535880.000 4556586.000 -552.278
21535906.000 4556601.500 -553.716
21535914.000 4556606.500 -554.154
21535930.000 4556615.000 -556.527
21535980.000 4556641.500 -564.092
21535110.000 4556656.000 93.363
21535980.000 4556641.500 -564.098
21536086.000 4556697.000 -579.848
21535588.000 4556980.000 102.798
21536086.000 4556697.000 -579.919
21536380.000 4556851.000 -624.620
21535710.000 4557061.000 102.783
21536380.000 4556851.000 -624.665
21536432.000 4556877.500 -632.901
21536448.000 4556886.000 -635.457
21536448.000 4556886.000 -635.479
21535904.000 4557187.500 101.781
21536550.000 4556939.000 -650.884
21536550.000 4556939.000 -650.943
21536228.000 4557401.000 100.691
21536710.000 4557023.000 -675.363
21536554.000 4557620.500 106.281
21536710.000 4557023.500 -675.489
21536778.000 4557059.000 -685.641
21536858.000 4557101.000 -697.528
21536858.000 4557101.000 -697.623
21536704.000 4557727.500 115.190
21536924.000 4557135.500 -707.569
21536924.000 4557135.500 -707.580
21537022.000 4557187.000 -722.625
21537022.000 4557187.000 -722.697
21536942.000 4557919.500 153.418
21537138.000 4557248.000 -742.009
21536872.000 4557869.000 149.117
21536894.000 4557887.000 152.275
21536912.000 4557900.500 154.732
21536940.000 4557922.500 158.618
21537162.000 4558080.000 186.910
21538068.000 4558663.500 236.369
21538864.000 4557966.000 -1137.557
21537374.000 4558229.500 213.354
21537574.000 4558369.500 236.742
21537942.000 4558594.500 242.446
21538864.000 4557966.000 -1137.523
21538894.000 4557979.500 -1142.575
21538894.000 4557979.500 -1142.773
21538118.000 4558692.500 233.845
21538896.000 4557980.000 -1142.910
21538896.000 4557980.000 -1143.054
21538540.000 4558948.500 237.936
21538896.000 4557980.500 -1143.268
21538904.000 4557983.500 -1144.520
21538608.000 4558988.000 237.179
21538904.000 4557984.500 -1143.943
21538904.000 4557984.000 -1144.349
21538904.000 4557984.500 -1144.056
21538612.000 4558990.500 237.167
21538904.000 4557984.500 -1144.069
21539020.000 4558040.000 -1168.112
21539020.000 4558040.500 -1168.252
21539324.000 4558241.000 -1168.252
21539062.000 4558060.500 -1177.036
21538620.000 4558995.000 236.855
21538696.000 4559035.000 232.709
21539126.000 4559252.000 203.260
21539278.000 4559338.500 204.513
21539540.000 4559492.000 211.034
21539632.000 4559538.500 204.731
21540100.000 4558633.000 -1221.451
21539630.000 4559544.000 213.231
21539748.000 4559580.500 212.848
21539772.000 4559587.500 212.778
21540086.000 4559689.500 218.904
21540614.000 4559855.000 220.689
21540764.000 4559894.000 209.764
21540902.000 4559935.500 207.604
21540356.000 4558763.500 -1221.451
21541394.000 4560083.000 199.863
21541400.000 4560084.500 199.483
21541586.000 4560139.500 196.000
21542092.000 4560290.500 186.605
21542114.000 4560297.000 186.202
21542124.000 4560300.000 186.001
21542224.000 4559347.000 -1217.229
21540842.000 4558819.000 -1357.881
21542130.000 4560301.500 185.878
21542848.000 4559541.500 -1217.229
21542686.000 4559336.000 -1438.471
21542134.000 4560303.000 185.837
21542156.000 4560309.500 185.668
21542824.000 4560507.000 180.795
21543470.000 4560703.500 184.208
21543512.000 4560715.500 183.801
21543536.000 4560723.500 184.430
21543780.000 4560796.000 183.508
21544132.000 4560900.500 181.306
21544224.000 4560928.000 180.586
21544238.000 4560932.000 180.542
21544184.000 4559933.000 -1232.063
21544184.000 4559933.000 -1232.100
21544262.000 4559966.000 -1218.311
21544262.000 4559966.500 -1218.219
21544432.000 4560038.000 -1188.225
21544244.000 4560934.000 180.518
21544432.000 4560038.000 -1188.195
21544248.000 4560934.500 180.509
21544432.000 4560038.000 -1188.157
21544432.000 4560038.500 -1187.774
21544432.000 4560038.500 -1187.799
21544432.000 4560038.500 -1187.729
21544900.000 4560236.000 -1101.191
21544900.000 4560236.000 -1101.200
21545798.000 4560714.500 -1067.956
21545798.000 4560714.500 -1067.932
21546010.000 4560827.500 -1060.477
21546036.000 4560840.500 -1060.124
21546012.000 4560828.500 -1060.632
21546056.000 4560851.500 -1059.057
21546070.000 4560859.500 -1058.266
21546092.000 4560871.000 -1057.604
21546096.000 4560873.000 -1057.549
21546106.000 4560878.000 -1057.428
21546236.000 4560954.000 -1044.455
21546378.000 4561037.000 -1030.246
21546378.000 4561037.000 -1030.233
21544256.000 4560938.500 180.538
21546380.000 4561038.000 -1030.196
21544566.000 4561096.000 181.679
21546380.000 4561038.000 -1030.191
21546424.000 4561063.500 -1026.040
21546450.000 4562021.000 151.547
21546424.000 4561063.500 -1026.031
21544596.000 4561111.000 181.788
21545660.000 4561641.000 173.965
21544870.000 4561252.000 185.312
21546218.000 4561912.000 161.327
21545874.000 4561747.500 173.128
21545218.000 4561426.500 185.218
21546490.000 4561102.000 -1019.599
21546726.000 4561239.000 -996.734
21546470.000 4562030.000 150.717
21546726.000 4561239.000 -996.716
21546730.000 4561241.000 -996.499
21546654.000 4562116.500 142.273
21546730.000 4561241.500 -996.125
21546730.000 4561241.000 -996.478
21546764.000 4561261.500 -992.616
21546672.000 4562125.000 141.575
21546764.000 4561261.500 -992.595
21546768.000 4561263.500 -992.448
21546676.000 4562126.500 141.465
21546768.000 4561263.500 -992.370
21546768.000 4561264.000 -991.981
21546768.000 4561264.000 -992.147
21546838.000 4561305.500 -983.632
21547228.000 4561534.000 -937.549
21547228.000 4561534.000 -937.573
21546688.000 4562132.000 140.988
21547230.000 4561534.500 -937.604
21547232.000 4561535.500 -937.735
21547232.000 4561535.500 -937.721
21547232.000 4561536.000 -937.560
21548086.000 4562022.000 -820.161
21548268.000 4562126.000 -794.958
21548268.000 4562126.000 -795.000
21548270.000 4562127.500 -794.590
21548286.000 4562136.000 -792.709
21548304.000 4562146.000 -790.176
21548356.000 4562176.000 -782.602
21548418.000 4562211.500 -774.030
21548436.000 4562221.500 -771.717
21548436.000 4562221.500 -771.708
21548476.000 4562244.000 -766.543
21548528.000 4562274.000 -759.602
21548570.000 4562298.000 -753.424
21548586.000 4562307.000 -751.698
21548670.000 4562355.000 -739.976
21547052.000 4562288.500 127.024
21548716.000 4562381.000 -733.344
21548766.000 4562409.500 -726.331
21547346.000 4562415.500 115.211
21548850.000 4562457.000 -715.279
21547670.000 4562556.500 103.900
21548850.000 4562457.000 -715.256
21548854.000 4562459.500 -714.313
21548854.000 4562460.000 -714.169
21548856.000 4562461.000 -714.025
21548860.000 4562463.000 -713.738
21548908.000 4562490.500 -707.049
21548948.000 4562513.500 -701.504
21547936.000 4562676.000 100.438
21548948.000 4562513.500 -701.489
21549034.000 4562563.000 -689.064
21549036.000 4562564.000 -688.884
21549036.000 4562564.000 -688.877
21548308.000 4562852.500 106.867
21549050.000 4562571.500 -687.415
21549058.000 4562575.500 -686.629
21549094.000 4562596.500 -681.246
21549126.000 4562615.000 -676.566
21549174.000 4562641.000 -671.575
21549174.000 4562641.500 -671.513
21548418.000 4562906.500 110.545
21549218.000 4562665.000 -667.080
21549218.000 4562665.000 -667.025
21548674.000 4563032.000 119.965
21549322.000 4562721.500 -656.242
21549322.000 4562722.000 -656.173
21549036.000 4563211.000 135.643
21549474.000 4562804.000 -640.332
21549474.000 4562804.000 -640.271
21549138.000 4563261.000 139.290
21549506.000 4562821.000 -637.261
21549518.000 4562827.500 -636.068
21549518.000 4562827.500 -636.035
21549250.000 4563315.000 142.647
21549528.000 4562833.000 -634.936
21549566.000 4562854.000 -630.661
21549566.000 4562854.000 -630.641
21549624.000 4563505.000 163.717
21549604.000 4562874.000 -627.134
21549658.000 4562903.500 -621.987
21549670.000 4562910.500 -620.205
21549678.000 4562915.000 -619.108
21549730.000 4562943.500 -613.363
21549732.000 4562944.500 -613.243
21549732.000 4562944.500 -613.200
21549736.000 4562947.000 -612.616
21549858.000 4563014.500 -598.032
21549858.000 4563015.000 -597.943
21549904.000 4563635.000 165.204
21550088.000 4563142.500 -571.652
21549790.000 4563588.500 173.011
21549900.000 4563644.000 179.363
21550536.000 4564031.500 193.490
21549852.000 4563620.000 177.423
21550618.000 4564075.500 187.929
21550400.000 4563957.500 200.682
21550430.000 4563975.000 200.662
21551014.000 4564293.000 168.796
21551070.000 4564323.000 165.400
21551342.000 4564476.500 157.307
21551462.000 4563981.000 -509.375
21551434.000 4563963.500 -510.526
21551526.000 4564021.000 -507.007
21551526.000 4564021.500 -506.982
21552032.000 4564334.000 -489.982
21552070.000 4564357.500 -488.711
21552126.000 4564392.000 -486.933
21552126.000 4564392.000 -486.928
21551584.000 4564613.000 150.093
21552250.000 4564468.500 -482.858
21552250.000 4564468.500 -482.852
21551640.000 4564646.000 149.819
21552268.000 4564479.500 -482.397
21552280.000 4564487.000 -481.988
21552280.000 4564487.000 -481.979
21552026.000 4564872.500 148.230
21552468.000 4564603.000 -475.836
21552488.000 4564615.500 -475.084
21552488.000 4564615.500 -475.072
21552520.000 4564635.500 -473.726
21552296.000 4565034.000 152.070
21552584.000 4564675.500 -470.995
21552590.000 4564678.500 -471.238
21552638.000 4564706.000 -472.241
21552638.000 4564706.000 -472.244
[...]
POINT_DATA 1031
COLOR_SCALARS GocadColor 4
1 0 0 0.5
1 0 0 0.5
1 0 0 0.5
1 0 0 0.5
1 0 0 0.5
1 0 0 0.5
1 0 0 0.5
1 0 0 0.5
1 0 0 0.5
1 0 0 0.5
1 0 0 0.5
1 0 0 0.5
1 0 0 0.5
1 0 0 0.5
1 0 0 0.5
1 0 0 0.5
1 0 0 0.5
1 0 0 0.5
1 0 0 0.5
1 0 0 0.5
1 0 0 0.5
1 0 0 0.5
1 0 0 0.5
1 0 0 0.5
1 0 0 0.5
1 0 0 0.5
1 0 0 0.5
1 0 0 0.5
1 0 0 0.5
1 0 0 0.5
1 0 0 0.5
1 0 0 0.5
1 0 0 0.5
1 0 0 0.5
1 0 0 0.5
1 0 0 0.5
1 0 0 0.5
1 0 0 0.5
1 0 0 0.5
1 0 0 0.5
1 0 0 0.5
1 0 0 0.5
1 0 0 0.5
1 0 0 0.5
1 0 0 0.5
1 0 0 0.5
1 0 0 0.5
1 0 0 0.5
1 0 0 0.5
1 0 0 0.5
1 0 0 0.5
1 0 0 0.5
1 0 0 0.5
1 0 0 0.5
1 0 0 0.5
1 0 0 0.5
1 0 0 0.5
1 0 0 0.5
1 0 0 0.5
1 0 0 0.5
1 0 0 0.5
1 0 0 0.5
1 0 0 0.5
1 0 0 0.5
1 0 0 0.5
1 0 0 0.5
1 0 0 0.5
1 0 0 0.5
1 0 0 0.5
1 0 0 0.5
1 0 0 0.5
1 0 0 0.5
1 0 0 0.5
1 0 0 0.5
1 0 0 0.5
1 0 0 0.5
1 0 0 0.5
1 0 0 0.5
1 0 0 0.5
1 0 0 0.5
1 0 0 0.5
1 0 0 0.5
1 0 0 0.5
1 0 0 0.5
1 0 0 0.5
1 0 0 0.5
1 0 0 0.5
1 0 0 0.5
1 0 0 0.5
1 0 0 0.5
1 0 0 0.5
1 0 0 0.5
1 0 0 0.5
1 0 0 0.5
1 0 0 0.5
1 0 0 0.5
1 0 0 0.5
1 0 0 0.5
1 0 0 0.5
1 0 0 0.5
1 0 0 0.5
1 0 0 0.5
1 0 0 0.5
1 0 0 0.5
1 0 0 0.5
1 0 0 0.5
1 0 0 0.5
1 0 0 0.5
1 0 0 0.5
1 0 0 0.5
1 0 0 0.5
1 0 0 0.5
1 0 0 0.5
1 0 0 0.5
1 0 0 0.5
1 0 0 0.5
1 0 0 0.5
1 0 0 0.5
1 0 0 0.5
1 0 0 0.5
1 0 0 0.5
1 0 0 0.5
1 0 0 0.5
1 0 0 0.5
1 0 0 0.5
1 0 0 0.5
1 0 0 0.5
1 0 0 0.5
1 0 0 0.5
1 0 0 0.5
1 0 0 0.5
1 0 0 0.5
1 0 0 0.5
1 0 0 0.5
1 0 0 0.5
1 0 0 0.5
1 0 0 0.5
1 0 0 0.5
1 0 0 0.5
1 0 0 0.5
1 0 0 0.5
1 0 0 0.5
1 0 0 0.5
1 0 0 0.5
1 0 0 0.5
1 0 0 0.5
1 0 0 0.5
1 0 0 0.5
1 0 0 0.5
1 0 0 0.5
1 0 0 0.5
1 0 0 0.5
1 0 0 0.5
1 0 0 0.5
1 0 0 0.5
1 0 0 0.5
1 0 0 0.5
1 0 0 0.5
1 0 0 0.5
1 0 0 0.5
1 0 0 0.5
1 0 0 0.5
1 0 0 0.5
1 0 0 0.5
1 0 0 0.5
1 0 0 0.5
1 0 0 0.5
1 0 0 0.5
1 0 0 0.5
1 0 0 0.5
1 0 0 0.5
1 0 0 0.5
1 0 0 0.5
1 0 0 0.5
1 0 0 0.5
1 0 0 0.5
1 0 0 0.5
1 0 0 0.5
1 0 0 0.5
1 0 0 0.5
1 0 0 0.5
1 0 0 0.5
1 0 0 0.5
1 0 0 0.5
1 0 0 0.5
1 0 0 0.5
1 0 0 0.5
1 0 0 0.5
1 0 0 0.5
1 0 0 0.5
1 0 0 0.5
1 0 0 0.5
1 0 0 0.5
1 0 0 0.5
1 0 0 0.5
1 0 0 0.5
1 0 0 0.5
1 0 0 0.5
1 0 0 0.5
1 0 0 0.5
1 0 0 0.5
1 0 0 0.5
1 0 0 0.5
1 0 0 0.5
1 0 0 0.5
1 0 0 0.5
1 0 0 0.5
1 0 0 0.5
1 0 0 0.5
1 0 0 0.5
1 0 0 0.5
1 0 0 0.5
1 0 0 0.5
1 0 0 0.5
1 0 0 0.5
1 0 0 0.5
1 0 0 0.5
1 0 0 0.5
1 0 0 0.5
1 0 0 0.5
1 0 0 0.5
1 0 0 0.5
1 0 0 0.5
1 0 0 0.5
1 0 0 0.5
1 0 0 0.5
1 0 0 0.5
1 0 0 0.5
1 0 0 0.5
1 0 0 0.5
1 0 0 0.5
1 0 0 0.5
1 0 0 0.5
1 0 0 0.5
1 0 0 0.5
1 0 0 0.5
1 0 0 0.5
1 0 0 0.5
1 0 0 0.5
1 0 0 0.5
1 0 0 0.5
1 0 0 0.5
1 0 0 0.5
1 0 0 0.5
1 0 0 0.5
1 0 0 0.5
1 0 0 0.5
1 0 0 0.5
1 0 0 0.5
1 0 0 0.5
1 0 0 0.5
1 0 0 0.5
1 0 0 0.5
1 0 0 0.5
1 0 0 0.5
1 0 0 0.5
1 0 0 0.5
1 0 0 0.5
1 0 0 0.5
1 0 0 0.5
1 0 0 0.5
1 0 0 0.5
1 0 0 0.5
1 0 0 0.5
1 0 0 0.5
1 0 0 0.5
1 0 0 0.5
1 0 0 0.5
1 0 0 0.5
1 0 0 0.5
1 0 0 0.5
1 0 0 0.5
1 0 0 0.5
1 0 0 0.5
1 0 0 0.5
1 0 0 0.5
1 0 0 0.5
1 0 0 0.5
1 0 0 0.5
1 0 0 0.5
1 0 0 0.5
1 0 0 0.5
1 0 0 0.5
1 0 0 0.5
1 0 0 0.5
1 0 0 0.5
1 0 0 0.5
1 0 0 0.5
1 0 0 0.5
1 0 0 0.5
1 0 0 0.5
1 0 0 0.5
1 0 0 0.5
1 0 0 0.5
1 0 0 0.5
1 0 0 0.5
1 0 0 0.5
1 0 0 0.5
1 0 0 0.5
1 0 0 0.5
1 0 0 0.5
1 0 0 0.5
1 0 0 0.5
1 0 0 0.5
1 0 0 0.5
1 0 0 0.5
1 0 0 0.5
1 0 0 0.5
1 0 0 0.5
1 0 0 0.5
1 0 0 0.5
1 0 0 0.5
1 0 0 0.5
1 0 0 0.5
1 0 0 0.5
1 0 0 0.5
1 0 0 0.5
1 0 0 0.5
1 0 0 0.5
1 0 0 0.5
1 0 0 0.5
1 0 0 0.5
1 0 0 0.5
1 0 0 0.5
1 0 0 0.5
1 0 0 0.5
1 0 0 0.5
1 0 0 0.5
1 0 0 0.5
1 0 0 0.5
1 0 0 0.5
1 0 0 0.5
1 0 0 0.5
1 0 0 0.5
1 0 0 0.5
1 0 0 0.5
1 0 0 0.5
1 0 0 0.5
1 0 0 0.5
1 0 0 0.5
1 0 0 0.5
1 0 0 0.5
1 0 0 0.5
1 0 0 0.5
1 0 0 0.5
1 0 0 0.5
1 0 0 0.5
1 0 0 0.5
1 0 0 0.5
1 0 0 0.5
1 0 0 0.5
1 0 0 0.5
1 0 0 0.5
1 0 0 0.5
1 0 0 0.5
1 0 0 0.5
1 0 0 0.5
1 0 0 0.5
1 0 0 0.5
1 0 0 0.5
1 0 0 0.5
1 0 0 0.5
1 0 0 0.5
1 0 0 0.5
1 0 0 0.5
1 0 0 0.5
1 0 0 0.5
1 0 0 0.5
1 0 0 0.5
1 0 0 0.5
1 0 0 0.5
1 0 0 0.5
1 0 0 0.5
1 0 0 0.5
1 0 0 0.5
1 0 0 0.5
1 0 0 0.5
1 0 0 0.5
1 0 0 0.5
1 0 0 0.5
1 0 0 0.5
1 0 0 0.5
1 0 0 0.5
1 0 0 0.5
1 0 0 0.5
1 0 0 0.5
1 0 0 0.5
1 0 0 0.5
1 0 0 0.5
1 0 0 0.5
1 0 0 0.5
1 0 0 0.5
1 0 0 0.5
1 0 0 0.5
1 0 0 0.5
1 0 0 0.5
1 0 0 0.5
1 0 0 0.5
1 0 0 0.5
1 0 0 0.5
1 0 0 0.5
1 0 0 0.5
1 0 0 0.5
1 0 0 0.5
1 0 0 0.5
1 0 0 0.5
1 0 0 0.5
1 0 0 0.5
1 0 0 0.5
1 0 0 0.5
1 0 0 0.5
1 0 0 0.5
1 0 0 0.5
1 0 0 0.5
1 0 0 0.5
1 0 0 0.5
1 0 0 0.5
1 0 0 0.5
1 0 0 0.5
1 0 0 0.5
1 0 0 0.5
1 0 0 0.5
1 0 0 0.5
1 0 0 0.5
1 0 0 0.5
1 0 0 0.5
1 0 0 0.5
1 0 0 0.5
1 0 0 0.5
1 0 0 0.5
1 0 0 0.5
1 0 0 0.5
1 0 0 0.5
1 0 0 0.5
1 0 0 0.5
1 0 0 0.5
1 0 0 0.5
1 0 0 0.5
1 0 0 0.5
1 0 0 0.5
1 0 0 0.5
1 0 0 0.5
1 0 0 0.5
1 0 0 0.5
1 0 0 0.5
1 0 0 0.5
1 0 0 0.5
1 0 0 0.5
1 0 0 0.5
1 0 0 0.5
1 0 0 0.5
1 0 0 0.5
1 0 0 0.5
1 0 0 0.5
1 0 0 0.5
1 0 0 0.5
1 0 0 0.5
1 0 0 0.5
1 0 0 0.5
1 0 0 0.5
1 0 0 0.5
1 0 0 0.5
1 0 0 0.5
1 0 0 0.5
1 0 0 0.5
1 0 0 0.5
1 0 0 0.5
1 0 0 0.5
1 0 0 0.5
1 0 0 0.5
1 0 0 0.5
1 0 0 0.5
1 0 0 0.5
1 0 0 0.5
1 0 0 0.5
1 0 0 0.5
1 0 0 0.5
1 0 0 0.5
1 0 0 0.5
1 0 0 0.5
1 0 0 0.5
1 0 0 0.5
1 0 0 0.5
1 0 0 0.5
1 0 0 0.5
1 0 0 0.5
1 0 0 0.5
1 0 0 0.5
1 0 0 0.5
1 0 0 0.5
1 0 0 0.5
1 0 0 0.5
1 0 0 0.5
1 0 0 0.5
1 0 0 0.5
1 0 0 0.5
1 0 0 0.5
1 0 0 0.5
1 0 0 0.5
1 0 0 0.5
1 0 0 0.5
1 0 0 0.5
1 0 0 0.5
1 0 0 0.5
1 0 0 0.5
1 0 0 0.5
1 0 0 0.5
1 0 0 0.5
1 0 0 0.5
1 0 0 0.5
1 0 0 0.5
1 0 0 0.5
1 0 0 0.5
1 0 0 0.5
1 0 0 0.5
1 0 0 0.5
1 0 0 0.5
1 0 0 0.5
1 0 0 0.5
1 0 0 0.5
1 0 0 0.5
1 0 0 0.5
1 0 0 0.5
1 0 0 0.5
1 0 0 0.5
1 0 0 0.5
1 0 0 0.5
1 0 0 0.5
1 0 0 0.5
1 0 0 0.5
1 0 0 0.5
1 0 0 0.5
1 0 0 0.5
1 0 0 0.5
1 0 0 0.5
1 0 0 0.5
1 0 0 0.5
1 0 0 0.5
1 0 0 0.5
1 0 0 0.5
1 0 0 0.5
1 0 0 0.5
1 0 0 0.5
1 0 0 0.5
1 0 0 0.5
1 0 0 0.5
1 0 0 0.5
1 0 0 0.5
1 0 0 0.5
1 0 0 0.5
1 0 0 0.5
1 0 0 0.5
1 0 0 0.5
1 0 0 0.5
1 0 0 0.5
1 0 0 0.5
1 0 0 0.5
1 0 0 0.5
1 0 0 0.5
1 0 0 0.5
1 0 0 0.5
1 0 0 0.5
1 0 0 0.5
1 0 0 0.5
1 0 0 0.5
1 0 0 0.5
1 0 0 0.5
1 0 0 0.5
1 0 0 0.5
1 0 0 0.5
1 0 0 0.5
1 0 0 0.5
1 0 0 0.5
1 0 0 0.5
1 0 0 0.5
1 0 0 0.5
1 0 0 0.5
1 0 0 0.5
1 0 0 0.5
1 0 0 0.5
1 0 0 0.5
1 0 0 0.5
1 0 0 0.5
1 0 0 0.5
1 0 0 0.5
1 0 0 0.5
1 0 0 0.5
1 0 0 0.5
1 0 0 0.5
1 0 0 0.5
1 0 0 0.5
1 0 0 0.5
1 0 0 0.5
1 0 0 0.5
1 0 0 0.5
1 0 0 0.5
1 0 0 0.5
1 0 0 0.5
1 0 0 0.5
1 0 0 0.5
1 0 0 0.5
1 0 0 0.5
1 0 0 0.5
1 0 0 0.5
1 0 0 0.5
1 0 0 0.5
1 0 0 0.5
1 0 0 0.5
1 0 0 0.5
1 0 0 0.5
1 0 0 0.5
1 0 0 0.5
1 0 0 0.5
1 0 0 0.5
1 0 0 0.5
1 0 0 0.5
1 0 0 0.5
1 0 0 0.5
1 0 0 0.5
1 0 0 0.5
1 0 0 0.5
1 0 0 0.5
1 0 0 0.5
1 0 0 0.5
1 0 0 0.5
1 0 0 0.5
1 0 0 0.5
1 0 0 0.5
1 0 0 0.5
1 0 0 0.5
1 0 0 0.5
1 0 0 0.5
1 0 0 0.5
1 0 0 0.5
1 0 0 0.5
1 0 0 0.5
1 0 0 0.5
1 0 0 0.5
1 0 0 0.5
1 0 0 0.5
1 0 0 0.5
1 0 0 0.5
1 0 0 0.5
1 0 0 0.5
1 0 0 0.5
1 0 0 0.5
1 0 0 0.5
1 0 0 0.5
1 0 0 0.5
1 0 0 0.5
1 0 0 0.5
1 0 0 0.5
1 0 0 0.5
1 0 0 0.5
1 0 0 0.5
1 0 0 0.5
1 0 0 0.5
1 0 0 0.5
1 0 0 0.5
1 0 0 0.5
1 0 0 0.5
1 0 0 0.5
1 0 0 0.5
1 0 0 0.5
1 0 0 0.5
1 0 0 0.5
1 0 0 0.5
1 0 0 0.5
1 0 0 0.5
1 0 0 0.5
1 0 0 0.5
1 0 0 0.5
1 0 0 0.5
1 0 0 0.5
1 0 0 0.5
1 0 0 0.5
1 0 0 0.5
1 0 0 0.5
1 0 0 0.5
1 0 0 0.5
1 0 0 0.5
1 0 0 0.5
1 0 0 0.5
1 0 0 0.5
1 0 0 0.5
1 0 0 0.5
1 0 0 0.5
1 0 0 0.5
1 0 0 0.5
1 0 0 0.5
1 0 0 0.5
1 0 0 0.5
1 0 0 0.5
1 0 0 0.5
1 0 0 0.5
1 0 0 0.5
1 0 0 0.5
1 0 0 0.5
1 0 0 0.5
1 0 0 0.5
1 0 0 0.5
1 0 0 0.5
1 0 0 0.5
1 0 0 0.5
1 0 0 0.5
1 0 0 0.5
1 0 0 0.5
1 0 0 0.5
1 0 0 0.5
1 0 0 0.5
1 0 0 0.5
1 0 0 0.5
1 0 0 0.5
1 0 0 0.5
1 0 0 0.5
1 0 0 0.5
1 0 0 0.5
1 0 0 0.5
1 0 0 0.5
1 0 0 0.5
1 0 0 0.5
1 0 0 0.5
1 0 0 0.5
1 0 0 0.5
1 0 0 0.5
1 0 0 0.5
1 0 0 0.5
1 0 0 0.5
1 0 0 0.5
1 0 0 0.5
1 0 0 0.5
1 0 0 0.5
1 0 0 0.5
1 0 0 0.5
1 0 0 0.5
1 0 0 0.5
1 0 0 0.5
1 0 0 0.5
1 0 0 0.5
1 0 0 0.5
1 0 0 0.5
1 0 0 0.5
1 0 0 0.5
1 0 0 0.5
1 0 0 0.5
1 0 0 0.5
1 0 0 0.5
1 0 0 0.5
1 0 0 0.5
1 0 0 0.5
1 0 0 0.5
1 0 0 0.5
1 0 0 0.5
1 0 0 0.5
1 0 0 0.5
1 0 0 0.5
1 0 0 0.5
1 0 0 0.5
1 0 0 0.5
1 0 0 0.5
1 0 0 0.5
1 0 0 0.5
1 0 0 0.5
1 0 0 0.5
1 0 0 0.5
1 0 0 0.5
1 0 0 0.5
1 0 0 0.5
1 0 0 0.5
1 0 0 0.5
1 0 0 0.5
1 0 0 0.5
1 0 0 0.5
1 0 0 0.5
1 0 0 0.5
1 0 0 0.5
1 0 0 0.5
1 0 0 0.5
1 0 0 0.5
1 0 0 0.5
1 0 0 0.5
1 0 0 0.5
1 0 0 0.5
1 0 0 0.5
1 0 0 0.5
1 0 0 0.5
1 0 0 0.5
1 0 0 0.5
1 0 0 0.5
1 0 0 0.5
1 0 0 0.5
1 0 0 0.5
1 0 0 0.5
1 0 0 0.5
1 0 0 0.5
1 0 0 0.5
1 0 0 0.5
1 0 0 0.5
1 0 0 0.5
1 0 0 0.5
1 0 0 0.5
1 0 0 0.5
1 0 0 0.5
1 0 0 0.5
1 0 0 0.5
1 0 0 0.5
1 0 0 0.5
1 0 0 0.5
1 0 0 0.5
1 0 0 0.5
1 0 0 0.5
1 0 0 0.5
1 0 0 0.5
1 0 0 0.5
1 0 0 0.5
1 0 0 0.5
1 0 0 0.5
1 0 0 0.5
1 0 0 0.5
1 0 0 0.5
1 0 0 0.5
1 0 0 0.5
1 0 0 0.5
1 0 0 0.5
1 0 0 0.5
1 0 0 0.5
1 0 0 0.5
1 0 0 0.5
1 0 0 0.5
1 0 0 0.5
1 0 0 0.5
1 0 0 0.5
1 0 0 0.5
1 0 0 0.5
1 0 0 0.5
1 0 0 0.5
1 0 0 0.5
1 0 0 0.5
1 0 0 0.5
1 0 0 0.5
1 0 0 0.5
1 0 0 0.5
1 0 0 0.5
1 0 0 0.5
1 0 0 0.5
1 0 0 0.5
1 0 0 0.5
1 0 0 0.5
1 0 0 0.5
1 0 0 0.5
1 0 0 0.5
1 0 0 0.5
1 0 0 0.5
1 0 0 0.5
1 0 0 0.5
1 0 0 0.5
1 0 0 0.5
1 0 0 0.5
1 0 0 0.5
1 0 0 0.5
1 0 0 0.5
1 0 0 0.5
1 0 0 0.5
1 0 0 0.5
1 0 0 0.5
1 0 0 0.5
1 0 0 0.5
1 0 0 0.5
1 0 0 0.5
1 0 0 0.5
1 0 0 0.5
1 0 0 0.5
1 0 0 0.5
1 0 0 0.5
1 0 0 0.5
1 0 0 0.5
1 0 0 0.5
1 0 0 0.5
1 0 0 0.5
1 0 0 0.5
1 0 0 0.5
1 0 0 0.5
1 0 0 0.5
1 0 0 0.5
1 0 0 0.5
1 0 0 0.5
1 0 0 0.5
1 0 0 0.5
1 0 0 0.5
1 0 0 0.5
1 0 0 0.5
1 0 0 0.5
1 0 0 0.5
1 0 0 0.5
1 0 0 0.5
1 0 0 0.5
1 0 0 0.5
1 0 0 0.5
1 0 0 0.5
1 0 0 0.5
1 0 0 0.5
1 0 0 0.5
1 0 0 0.5
1 0 0 0.5
1 0 0 0.5
1 0 0 0.5
1 0 0 0.5
1 0 0 0.5
1 0 0 0.5
1 0 0 0.5
1 0 0 0.5
1 0 0 0.5
1 0 0 0.5
1 0 0 0.5
1 0 0 0.5
1 0 0 0.5
1 0 0 0.5
1 0 0 0.5
1 0 0 0.5
1 0 0 0.5
1 0 0 0.5
1 0 0 0.5
1 0 0 0.5
1 0 0 0.5
1 0 0 0.5
1 0 0 0.5
1 0 0 0.5
1 0 0 0.5
1 0 0 0.5
1 0 0 0.5
1 0 0 0.5
1 0 0 0.5
1 0 0 0.5
1 0 0 0.5
1 0 0 0.5
1 0 0 0.5
1 0 0 0.5
1 0 0 0.5
1 0 0 0.5
1 0 0 0.5
1 0 0 0.5
1 0 0 0.5
1 0 0 0.5
1 0 0 0.5
1 0 0 0.5
1 0 0 0.5
1 0 0 0.5
1 0 0 0.5
1 0 0 0.5
1 0 0 0.5
1 0 0 0.5
1 0 0 0.5
1 0 0 0.5
1 0 0 0.5
1 0 0 0.5
1 0 0 0.5
1 0 0 0.5
1 0 0 0.5
1 0 0 0.5
1 0 0 0.5
1 0 0 0.5
1 0 0 0.5
1 0 0 0.5
1 0 0 0.5
1 0 0 0.5
1 0 0 0.5
1 0 0 0.5
1 0 0 0.5
1 0 0 0.5
1 0 0 0.5
1 0 0 0.5
1 0 0 0.5
1 0 0 0.5
1 0 0 0.5
1 0 0 0.5
1 0 0 0.5
1 0 0 0.5
1 0 0 0.5
1 0 0 0.5
1 0 0 0.5
1 0 0 0.5
1 0 0 0.5
1 0 0 0.5
1 0 0 0.5
1 0 0 0.5
1 0 0 0.5
1 0 0 0.5
1 0 0 0.5
1 0 0 0.5
1 0 0 0.5
1 0 0 0.5
1 0 0 0.5
1 0 0 0.5
1 0 0 0.5
1 0 0 0.5
1 0 0 0.5
1 0 0 0.5
1 0 0 0.5
1 0 0 0.5
1 0 0 0.5
1 0 0 0.5
1 0 0 0.5
1 0 0 0.5
1 0 0 0.5
1 0 0 0.5
1 0 0 0.5
1 0 0 0.5
1 0 0 0.5
1 0 0 0.5
1 0 0 0.5
1 0 0 0.5
1 0 0 0.5
1 0 0 0.5
1 0 0 0.5
1 0 0 0.5
1 0 0 0.5
1 0 0 0.5
1 0 0 0.5
1 0 0 0.5
1 0 0 0.5
1 0 0 0.5
1 0 0 0.5
1 0 0 0.5
1 0 0 0.5
1 0 0 0.5
1 0 0 0.5
1 0 0 0.5
1 0 0 0.5
1 0 0 0.5
1 0 0 0.5
1 0 0 0.5

