# vtk DataFile Version 3.0
Gocad TSurf to VTK
ASCII
DATASET POLYDATA
POINTS 498 float
21550398.000 4579053.500 252.106
21550484.000 4579304.000 263.786
21550460.000 4579239.000 262.011
21550382.000 4578993.000 242.994
21550654.000 4579787.500 277.022
21550378.000 4578993.500 249.261
21550378.000 4578929.000 247.494
21550376.000 4578655.000 239.935
21551300.000 4578462.000 -1192.755
21550376.000 4578565.000 237.457
21551444.000 4578996.000 -1192.755
21552216.000 4577931.000 -2628.503
21552260.000 4581231.500 -1165.305
21553048.000 4580489.500 -2610.203
21550912.000 4580443.000 260.801
21550958.000 4580557.000 257.853
21550790.000 4580134.500 268.806
21550674.000 4579839.500 276.794
21550982.000 4580618.500 256.092
21551034.000 4580770.000 261.162
21551210.000 4581256.500 270.789
21551250.000 4581368.000 272.155
21551330.000 4581581.000 273.435
21551228.000 4581307.000 271.791
21551388.000 4581745.500 276.796
21551474.000 4581971.000 274.531
21551476.000 4581973.000 274.442
21551434.000 4581869.500 278.314
21551426.000 4581852.000 278.962
21552494.000 4581888.500 -1165.305
21551480.000 4581983.000 274.152
21553516.000 4581804.000 -2610.203
21554286.000 4583487.000 -2566.404
21554540.000 4581719.000 -4055.102
21554924.000 4582560.500 -4033.202
21553838.000 4579747.500 -4055.102
21552504.000 4578999.000 -2628.503
21555208.000 4581663.500 -5000.000
21554966.000 4580981.000 -5000.000
21555344.000 4581950.000 -5000.000
21555728.000 4582636.000 -5000.000
21556480.000 4583984.500 -5000.000
21556920.000 4584774.000 -5000.000
21556216.000 4584876.000 -4033.202
21557122.000 4585000.000 -5000.000
21555148.000 4585031.000 -2566.404
21556356.000 4586312.500 -2645.445
21553648.000 4584414.000 -1099.605
21554078.000 4585185.500 -1099.605
21551616.000 4582256.500 266.175
21551702.000 4582430.500 263.353
21551738.000 4582507.500 263.712
21552094.000 4583251.500 260.831
21552108.000 4583284.500 262.119
21552134.000 4583341.000 265.107
21552396.000 4583973.500 318.492
21552456.000 4584128.500 335.665
21553010.000 4585340.500 367.193
21552562.000 4584397.500 365.329
21553408.000 4585760.000 339.399
21553960.000 4586299.000 253.738
21553380.000 4585733.000 342.994
21553230.000 4585583.000 362.751
21553094.000 4585434.500 367.560
21553008.000 4585342.000 370.569
21552922.000 4585174.500 379.759
21552692.000 4584698.500 382.213
21552732.000 4584785.000 385.687
21552644.000 4584589.000 377.844
21553962.000 4586302.000 253.374
21553966.000 4586306.000 253.005
21554430.000 4586793.500 218.730
21554706.000 4587103.500 219.272
21554932.000 4587350.000 211.689
21555424.000 4587892.000 203.426
21555894.000 4587108.000 -1218.168
21555430.000 4587898.500 203.330
21557032.000 4586673.500 -2660.017
21557158.000 4585697.000 -4080.009
21556908.000 4587650.000 -1240.026
21558372.000 4587765.000 -2660.017
21555432.000 4587901.000 203.299
21555434.000 4587902.000 203.264
21555436.000 4587903.000 203.261
21555722.000 4588060.000 202.820
21556782.000 4588626.000 179.966
21556228.000 4588332.500 194.604
21557576.000 4588195.500 -1240.026
21557768.000 4588603.000 -1240.026
21557904.000 4589423.000 -1226.113
21558846.000 4589126.500 -2650.742
21556798.000 4588722.000 181.591
21556834.000 4588935.500 182.790
21556786.000 4588659.000 181.236
21556782.000 4588626.000 180.482
21556538.000 4588498.000 189.007
21556884.000 4589242.500 190.416
21556962.000 4589720.000 198.516
21556908.000 4589391.000 194.115
21557944.000 4589752.000 -1226.113
21558924.000 4589783.500 -2650.742
21557904.000 4590158.000 -1226.113
21556674.000 4591547.000 207.016
21557688.000 4591528.000 -1219.738
21556728.000 4591187.500 209.479
21556692.000 4591406.500 211.438
21556856.000 4590254.500 231.062
21556762.000 4590892.500 224.515
21556908.000 4589948.000 226.191
21556956.000 4589720.000 206.828
21556950.000 4589672.500 205.201
21556914.000 4589446.000 197.712
21556808.000 4590539.500 238.943
21556678.000 4591496.000 211.356
21556672.000 4591546.500 211.315
21556614.000 4591691.500 214.536
21556564.000 4591820.500 217.421
21556420.000 4592205.500 218.798
21556288.000 4592583.000 203.149
21556134.000 4593039.500 179.193
21556340.000 4592420.000 216.249
21556096.000 4593156.000 170.605
21557440.000 4592281.000 -1219.738
21556064.000 4593252.500 163.484
21557608.000 4591878.500 -1219.738
21558544.000 4592210.000 -2646.492
21558704.000 4591509.000 -2646.492
21558848.000 4590596.000 -2650.742
21559480.000 4592541.500 -4073.246
21558204.000 4593015.000 -2646.492
21559720.000 4591490.500 -4073.246
21559792.000 4591033.500 -4075.371
21560086.000 4592757.000 -5000.000
21560170.000 4592388.500 -5000.000
21559908.000 4593180.000 -5000.000
21558970.000 4593749.500 -4073.246
21559468.000 4594226.500 -5000.000
21557798.000 4594147.500 -2672.115
21558768.000 4594315.500 -4086.057
21556828.000 4593979.500 -1258.172
21557326.000 4594734.500 -2672.115
21555860.000 4593811.000 155.389
21555860.000 4593811.500 155.408
21555874.000 4593779.000 154.100
21556592.000 4594273.000 -1258.172
21555860.000 4593811.500 155.413
21556284.000 4594602.000 -1258.172
21556708.000 4595392.500 -2672.115
21555860.000 4593811.500 155.419
21555860.000 4593812.000 155.435
21555380.000 4595065.500 -1186.422
21555380.000 4594061.500 188.786
21556104.000 4595701.500 -2624.281
21554974.000 4596211.000 -2624.281
21554814.000 4595320.000 -1186.422
21555134.000 4597101.500 -4062.141
21554852.000 4597130.000 -4081.086
21556828.000 4596337.500 -4062.141
21555238.000 4597682.500 -5000.000
21555828.000 4597416.500 -5000.000
21555138.000 4597688.000 -5000.000
21555006.000 4597739.000 -5000.000
21554478.000 4597273.000 -4078.491
21554950.000 4597893.500 -5000.000
21554412.000 4596268.000 -2662.172
21553660.000 4596553.500 -2656.982
21553972.000 4595406.500 -1243.258
21554656.000 4594442.000 231.346
21554646.000 4594442.000 232.188
21554664.000 4594438.500 230.817
21554980.000 4594272.500 211.521
21555176.000 4594171.000 198.126
21555226.000 4594143.500 196.650
21554600.000 4594442.500 235.717
21554310.000 4594464.500 228.285
21553530.000 4594544.500 175.655
21554046.000 4594485.000 221.449
21552844.000 4595834.000 -1235.473
21553442.000 4594578.000 176.268
21553168.000 4594695.500 159.252
21553526.000 4594541.500 181.582
21553528.000 4594540.500 181.930
21553594.000 4594531.500 190.006
21553820.000 4594500.500 217.989
21552898.000 4594803.000 154.459
21552638.000 4594903.500 153.907
21552038.000 4595118.000 176.758
21552034.000 4595119.500 177.010
21551956.000 4595325.000 177.852
21552032.000 4595124.500 177.266
21551430.000 4596883.500 117.114
21551588.000 4596362.500 161.719
21552396.000 4597160.500 -1287.165
21552280.000 4597490.000 -1287.165
21553362.000 4597438.000 -2691.443
21551446.000 4598978.500 -1293.719
21552572.000 4599089.000 -2695.813
21551218.000 4597263.000 115.444
21551164.000 4597366.500 110.431
21551414.000 4596886.500 133.609
21551418.000 4596879.000 133.795
21551422.000 4596872.000 133.931
21551010.000 4597647.000 104.158
21550880.000 4597883.500 100.172
21550724.000 4598163.000 98.353
21550540.000 4598486.000 100.970
21550386.000 4598751.500 104.784
21550320.000 4598868.000 107.105
21551378.000 4599162.000 -1334.544
21550318.000 4598868.500 107.108
21552504.000 4599272.500 -2736.628
21553632.000 4599383.500 -4138.742
21553700.000 4599200.000 -4097.906
21554426.000 4599271.000 -5000.000
21553128.000 4598097.000 -2691.443
21553978.000 4598704.000 -4095.722
21554328.000 4597715.000 -4095.722
21554826.000 4598245.500 -5000.000
21554526.000 4599094.500 -5000.000
21554388.000 4599337.500 -5000.000
21554348.000 4599429.000 -5000.000
21550252.000 4598982.500 109.392
21551670.000 4596116.500 171.792
21551810.000 4595720.500 179.003
21555980.000 4597348.500 -5000.000
21557302.000 4596752.500 -5000.000
21557130.000 4596183.000 -4086.057
21557404.000 4596694.000 -5000.000
21558060.000 4595196.000 -4086.057
21558204.000 4595843.500 -5000.000
21558534.000 4595494.500 -5000.000
21558784.000 4595183.000 -5000.000
21559394.000 4594424.000 -5000.000
21560378.000 4591478.000 -5000.000
21560404.000 4591318.000 -5000.000
21560504.000 4590263.500 -5000.000
21559906.000 4589815.000 -4075.371
21560544.000 4589836.000 -5000.000
21559788.000 4588830.000 -4075.371
21558756.000 4588579.500 -2660.017
21560502.000 4589490.000 -5000.000
21560400.000 4588637.000 -5000.000
21559744.000 4588556.000 -4080.009
21560382.000 4588541.000 -5000.000
21559166.000 4587334.000 -4080.009
21559884.000 4587485.500 -5000.000
21559680.000 4587055.000 -5000.000
21558974.000 4586478.500 -5000.000
21557720.000 4585457.000 -5000.000
21557240.000 4585064.500 -5000.000
21556820.000 4585517.000 -4072.723
21556042.000 4588235.000 202.327
21554354.000 4579262.500 -5000.000
21553564.000 4579002.500 -4064.251
21554256.000 4579004.500 -5000.000
21553132.000 4577399.500 -4064.251
21553880.000 4577611.500 -5000.000
21553730.000 4577053.500 -5000.000
21553124.000 4576868.500 -4069.057
21553726.000 4576868.500 -5000.000
21552200.000 4576868.500 -2638.114
21551800.000 4575405.500 -2638.114
21551074.000 4576137.000 -1207.171
21552524.000 4574674.000 -4069.057
21551398.000 4573942.500 -2694.023
21553516.000 4576101.500 -5000.000
21552996.000 4574198.000 -5000.000
21552324.000 4573942.500 -4097.012
21552918.000 4573942.500 -5000.000
21550996.000 4572721.500 -2694.023
21550272.000 4573332.000 -1291.035
21551722.000 4572111.000 -4097.012
21551520.000 4571500.500 -4060.965
21552704.000 4573290.000 -5000.000
21552188.000 4571718.000 -5000.000
21552124.000 4571500.500 -5000.000
21551498.000 4570961.500 -4060.965
21552116.000 4571313.000 -5000.000
21550580.000 4571141.000 -2621.930
21550596.000 4571500.500 -2621.930
21550644.000 4569722.000 -4060.965
21550012.000 4570315.000 -2621.930
21551354.000 4569766.000 -5000.000
21551058.000 4569335.500 -5000.000
21552098.000 4570844.500 -5000.000
21552098.000 4570886.000 -5000.000
21550638.000 4569542.500 -4056.388
21551056.000 4569272.500 -5000.000
21549996.000 4569956.000 -2612.776
21549944.000 4569696.000 -2612.776
[...]
POINT_DATA 498
COLOR_SCALARS GocadColor 4
1 0 0 0.5
1 0 0 0.5
1 0 0 0.5
1 0 0 0.5
1 0 0 0.5
1 0 0 0.5
1 0 0 0.5
1 0 0 0.5
1 0 0 0.5
1 0 0 0.5
1 0 0 0.5
1 0 0 0.5
1 0 0 0.5
1 0 0 0.5
1 0 0 0.5
1 0 0 0.5
1 0 0 0.5
1 0 0 0.5
1 0 0 0.5
1 0 0 0.5
1 0 0 0.5
1 0 0 0.5
1 0 0 0.5
1 0 0 0.5
1 0 0 0.5
1 0 0 0.5
1 0 0 0.5
1 0 0 0.5
1 0 0 0.5
1 0 0 0.5
1 0 0 0.5
1 0 0 0.5
1 0 0 0.5
1 0 0 0.5
1 0 0 0.5
1 0 0 0.5
1 0 0 0.5
1 0 0 0.5
1 0 0 0.5
1 0 0 0.5
1 0 0 0.5
1 0 0 0.5
1 0 0 0.5
1 0 0 0.5
1 0 0 0.5
1 0 0 0.5
1 0 0 0.5
1 0 0 0.5
1 0 0 0.5
1 0 0 0.5
1 0 0 0.5
1 0 0 0.5
1 0 0 0.5
1 0 0 0.5
1 0 0 0.5
1 0 0 0.5
1 0 0 0.5
1 0 0 0.5
1 0 0 0.5
1 0 0 0.5
1 0 0 0.5
1 0 0 0.5
1 0 0 0.5
1 0 0 0.5
1 0 0 0.5
1 0 0 0.5
1 0 0 0.5
1 0 0 0.5
1 0 0 0.5
1 0 0 0.5
1 0 0 0.5
1 0 0 0.5
1 0 0 0.5
1 0 0 0.5
1 0 0 0.5
1 0 0 0.5
1 0 0 0.5
1 0 0 0.5
1 0 0 0.5
1 0 0 0.5
1 0 0 0.5
1 0 0 0.5
1 0 0 0.5
1 0 0 0.5
1 0 0 0.5
1 0 0 0.5
1 0 0 0.5
1 0 0 0.5
1 0 0 0.5
1 0 0 0.5
1 0 0 0.5
1 0 0 0.5
1 0 0 0.5
1 0 0 0.5
1 0 0 0.5
1 0 0 0.5
1 0 0 0.5
1 0 0 0.5
1 0 0 0.5
1 0 0 0.5
1 0 0 0.5
1 0 0 0.5
1 0 0 0.5
1 0 0 0.5
1 0 0 0.5
1 0 0 0.5
1 0 0 0.5
1 0 0 0.5
1 0 0 0.5
1 0 0 0.5
1 0 0 0.5
1 0 0 0.5
1 0 0 0.5
1 0 0 0.5
1 0 0 0.5
1 0 0 0.5
1 0 0 0.5
1 0 0 0.5
1 0 0 0.5
1 0 0 0.5
1 0 0 0.5
1 0 0 0.5
1 0 0 0.5
1 0 0 0.5
1 0 0 0.5
1 0 0 0.5
1 0 0 0.5
1 0 0 0.5
1 0 0 0.5
1 0 0 0.5
1 0 0 0.5
1 0 0 0.5
1 0 0 0.5
1 0 0 0.5
1 0 0 0.5
1 0 0 0.5
1 0 0 0.5
1 0 0 0.5
1 0 0 0.5
1 0 0 0.5
1 0 0 0.5
1 0 0 0.5
1 0 0 0.5
1 0 0 0.5
1 0 0 0.5
1 0 0 0.5
1 0 0 0.5
1 0 0 0.5
1 0 0 0.5
1 0 0 0.5
1 0 0 0.5
1 0 0 0.5
1 0 0 0.5
1 0 0 0.5
1 0 0 0.5
1 0 0 0.5
1 0 0 0.5
1 0 0 0.5
1 0 0 0.5
1 0 0 0.5
1 0 0 0.5
1 0 0 0.5
1 0 0 0.5
1 0 0 0.5
1 0 0 0.5
1 0 0 0.5
1 0 0 0.5
1 0 0 0.5
1 0 0 0.5
1 0 0 0.5
1 0 0 0.5
1 0 0 0.5
1 0 0 0.5
1 0 0 0.5
1 0 0 0.5
1 0 0 0.5
1 0 0 0.5
1 0 0 0.5
1 0 0 0.5
1 0 0 0.5
1 0 0 0.5
1 0 0 0.5
1 0 0 0.5
1 0 0 0.5
1 0 0 0.5
1 0 0 0.5
1 0 0 0.5
1 0 0 0.5
1 0 0 0.5
1 0 0 0.5
1 0 0 0.5
1 0 0 0.5
1 0 0 0.5
1 0 0 0.5
1 0 0 0.5
1 0 0 0.5
1 0 0 0.5
1 0 0 0.5
1 0 0 0.5
1 0 0 0.5
1 0 0 0.5
1 0 0 0.5
1 0 0 0.5
1 0 0 0.5
1 0 0 0.5
1 0 0 0.5
1 0 0 0.5
1 0 0 0.5
1 0 0 0.5
1 0 0 0.5
1 0 0 0.5
1 0 0 0.5
1 0 0 0.5
1 0 0 0.5
1 0 0 0.5
1 0 0 0.5
1 0 0 0.5
1 0 0 0.5
1 0 0 0.5
1 0 0 0.5
1 0 0 0.5
1 0 0 0.5
1 0 0 0.5
1 0 0 0.5
1 0 0 0.5
1 0 0 0.5
1 0 0 0.5
1 0 0 0.5
1 0 0 0.5
1 0 0 0.5
1 0 0 0.5
1 0 0 0.5
1 0 0 0.5
1 0 0 0.5
1 0 0 0.5
1 0 0 0.5
1 0 0 0.5
1 0 0 0.5
1 0 0 0.5
1 0 0 0.5
1 0 0 0.5
1 0 0 0.5
1 0 0 0.5
1 0 0 0.5
1 0 0 0.5
1 0 0 0.5
1 0 0 0.5
1 0 0 0.5
1 0 0 0.5
1 0 0 0.5
1 0 0 0.5
1 0 0 0.5
1 0 0 0.5
1 0 0 0.5
1 0 0 0.5
1 0 0 0.5
1 0 0 0.5
1 0 0 0.5
1 0 0 0.5
1 0 0 0.5
1 0 0 0.5
1 0 0 0.5
1 0 0 0.5
1 0 0 0.5
1 0 0 0.5
1 0 0 0.5
1 0 0 0.5
1 0 0 0.5
1 0 0 0.5
1 0 0 0.5
1 0 0 0.5
1 0 0 0.5
1 0 0 0.5
1 0 0 0.5
1 0 0 0.5
1 0 0 0.5
1 0 0 0.5
1 0 0 0.5
1 0 0 0.5
1 0 0 0.5
1 0 0 0.5
1 0 0 0.5
1 0 0 0.5
1 0 0 0.5
1 0 0 0.5
1 0 0 0.5
1 0 0 0.5
1 0 0 0.5
1 0 0 0.5
1 0 0 0.5
1 0 0 0.5
1 0 0 0.5
1 0 0 0.5
1 0 0 0.5
1 0 0 0.5
1 0 0 0.5
1 0 0 0.5
1 0 0 0.5
1 0 0 0.5
1 0 0 0.5
1 0 0 0.5
1 0 0 0.5
1 0 0 0.5
1 0 0 0.5
1 0 0 0.5
1 0 0 0.5
1 0 0 0.5
1 0 0 0.5
1 0 0 0.5
1 0 0 0.5
1 0 0 0.5
1 0 0 0.5
1 0 0 0.5
1 0 0 0.5
1 0 0 0.5
1 0 0 0.5
1 0 0 0.5
1 0 0 0.5
1 0 0 0.5
1 0 0 0.5
1 0 0 0.5
1 0 0 0.5
1 0 0 0.5
1 0 0 0.5
1 0 0 0.5
1 0 0 0.5
1 0 0 0.5
1 0 0 0.5
1 0 0 0.5
1 0 0 0.5
1 0 0 0.5
1 0 0 0.5
1 0 0 0.5
1 0 0 0.5
1 0 0 0.5
1 0 0 0.5
1 0 0 0.5
1 0 0 0.5
1 0 0 0.5
1 0 0 0.5
1 0 0 0.5
1 0 0 0.5
1 0 0 0.5
1 0 0 0.5
1 0 0 0.5
1 0 0 0.5
1 0 0 0.5
1 0 0 0.5
1 0 0 0.5
1 0 0 0.5
1 0 0 0.5
1 0 0 0.5
1 0 0 0.5
1 0 0 0.5
1 0 0 0.5
1 0 0 0.5
1 0 0 0.5
1 0 0 0.5
1 0 0 0.5
1 0 0 0.5
1 0 0 0.5
1 0 0 0.5
1 0 0 0.5
1 0 0 0.5
1 0 0 0.5
1 0 0 0.5
1 0 0 0.5
1 0 0 0.5
1 0 0 0.5
1 0 0 0.5
1 0 0 0.5
1 0 0 0.5
1 0 0 0.5
1 0 0 0.5
1 0 0 0.5
1 0 0 0.5
1 0 0 0.5
1 0 0 0.5
1 0 0 0.5
1 0 0 0.5
1 0 0 0.5
1 0 0 0.5
1 0 0 0.5
1 0 0 0.5
1 0 0 0.5
1 0 0 0.5
1 0 0 0.5
1 0 0 0.5
1 0 0 0.5
1 0 0 0.5
1 0 0 0.5
1 0 0 0.5
1 0 0 0.5
1 0 0 0.5
1 0 0 0.5
1 0 0 0.5
1 0 0 0.5
1 0 0 0.5
1 0 0 0.5
1 0 0 0.5
1 0 0 0.5
1 0 0 0.5
1 0 0 0.5
1 0 0 0.5
1 0 0 0.5
1 0 0 0.5
1 0 0 0.5
1 0 0 0.5
1 0 0 0.5
1 0 0 0.5
1 0 0 0.5
1 0 0 0.5
1 0 0 0.5
1 0 0 0.5
1 0 0 0.5
1 0 0 0.5
1 0 0 0.5
1 0 0 0.5
1 0 0 0.5
1 0 0 0.5
1 0 0 0.5
1 0 0 0.5
1 0 0 0.5
1 0 0 0.5
1 0 0 0.5
1 0 0 0.5
1 0 0 0.5
1 0 0 0.5
1 0 0 0.5
1 0 0 0.5
1 0 0 0.5
1 0 0 0.5
1 0 0 0.5
1 0 0 0.5
1 0 0 0.5
1 0 0 0.5
1 0 0 0.5
1 0 0 0.5
1 0 0 0.5
1 0 0 0.5
1 0 0 0.5
1 0 0 0.5
1 0 0 0.5
1 0 0 0.5
1 0 0 0.5
1 0 0 0.5
1 0 0 0.5
1 0 0 0.5
1 0 0 0.5
1 0 0 0.5
1 0 0 0.5
1 0 0 0.5
1 0 0 0.5
1 0 0 0.5
1 0 0 0.5
1 0 0 0.5
1 0 0 0.5
1 0 0 0.5
1 0 0 0.5
1 0 0 0.5
1 0 0 0.5
1 0 0 0.5
1 0 0 0.5
1 0 0 0.5
1 0 0 0.5
1 0 0 0.5
1 0 0 0.5
1 0 0 0.5
1 0 0 0.5
1 0 0 0.5
1 0 0 0.5
1 0 0 0.5
1 0 0 0.5
1 0 0 0.5
1 0 0 0.5
1 0 0 0.5
1 0 0 0.5
1 0 0 0.5
1 0 0 0.5
1 0 0 0.5
1 0 0 0.5
1 0 0 0.5
1 0 0 0.5
1 0 0 0.5
1 0 0 0.5
1 0 0 0.5
1 0 0 0.5
1 0 0 0.5
1 0 0 0.5
1 0 0 0.5
1 0 0 0.5
1 0 0 0.5
1 0 0 0.5
1 0 0 0.5
1 0 0 0.5
1 0 0 0.5
1 0 0 0.5
1 0 0 0.5

