# vtk DataFile Version 3.0
Gocad TSurf to VTK
ASCII
DATASET POLYDATA
POINTS 401 float
21540124.000 4588229.500 87.766
21540124.000 4588228.000 87.782
21538500.000 4589714.000 -1329.473
21538726.000 4588228.000 -1308.234
21540066.000 4588625.500 82.982
21540052.000 4588717.000 82.034
21539932.000 4589506.000 70.759
21539928.000 4589520.500 70.473
21540026.000 4588886.000 80.284
21539962.000 4589309.500 74.553
21539868.000 4589911.000 64.397
21539824.000 4590209.500 60.073
21539824.000 4590209.500 60.070
21538424.000 4590209.500 -1329.473
21537024.000 4590209.500 -2719.648
21539824.000 4590209.500 60.068
21538408.000 4590408.500 -1314.224
21539800.000 4590361.500 57.849
21537008.000 4590408.500 -2704.393
21535624.000 4590209.500 -4109.824
21537176.000 4589219.000 -2719.648
21535608.000 4590408.500 -4094.686
21534728.000 4590209.500 -5000.000
21535850.000 4588723.500 -4109.824
21534716.000 4590280.500 -5000.000
21534702.000 4590368.500 -5000.000
21534808.000 4589675.000 -5000.000
21537326.000 4588228.000 -2705.490
21535926.000 4588228.000 -4102.745
21538070.000 4586398.000 -2705.490
21539098.000 4587313.000 -1308.234
21537042.000 4585482.500 -4102.745
21537448.000 4584557.500 -4094.262
21536382.000 4584895.000 -5000.000
21538884.000 4584548.000 -2688.523
21537928.000 4583359.000 -4094.262
21540320.000 4584538.000 -1282.785
21539204.000 4583748.500 -2688.523
21540126.000 4588227.000 87.796
21540126.000 4588225.000 87.840
21540150.000 4588173.000 88.797
21540266.000 4587909.000 91.946
21541614.000 4584844.500 120.050
21541746.000 4584528.000 115.578
21540302.000 4587827.500 92.920
21541340.000 4585474.500 116.970
21541382.000 4585376.500 117.695
21540414.000 4587574.500 96.738
21541132.000 4585953.000 117.793
21540622.000 4587115.000 108.622
21540988.000 4586295.000 121.528
21540852.000 4586605.000 119.654
21540636.000 4587086.500 109.476
21541480.000 4585153.500 119.457
21541748.000 4584526.000 115.524
21541632.000 4584803.500 120.127
21541682.000 4584689.500 119.669
21540478.000 4584138.000 -1282.785
21541750.000 4584525.000 115.504
21541098.000 4583938.500 -1282.785
21540442.000 4583349.000 -2688.523
21541758.000 4584522.500 115.460
21542590.000 4583517.500 -1264.120
21541436.000 4583068.000 -2676.080
21541854.000 4584494.500 114.936
21542300.000 4584362.500 108.811
21542548.000 4584290.000 107.411
21542924.000 4584182.000 108.057
21543184.000 4584109.000 112.775
21543566.000 4584008.500 129.264
21543734.000 4583963.000 135.415
21543736.000 4583948.500 135.250
21542908.000 4581883.500 -1270.758
21541648.000 4581979.000 -2680.506
21543778.000 4583724.500 132.700
21543858.000 4583240.000 115.285
21543890.000 4583077.500 115.306
21544006.000 4582456.500 107.287
21544010.000 4582440.500 107.915
21544162.000 4581789.500 134.484
21544162.000 4581788.500 134.534
21542908.000 4581483.500 -1270.758
21544162.000 4581787.000 134.597
21543308.000 4581124.000 -1270.758
21542448.000 4580460.000 -2680.506
21544164.000 4581786.000 134.617
21544164.000 4581785.500 134.622
21544166.000 4581783.500 134.682
21544136.000 4580398.000 -1236.031
21543000.000 4579976.000 -2657.354
21544170.000 4581780.000 134.791
21544660.000 4581346.500 150.855
21544894.000 4581147.000 166.835
21545216.000 4580855.500 171.241
21545260.000 4580816.500 172.574
21544414.000 4579890.500 -1236.031
21545262.000 4580812.000 172.684
21545270.000 4580802.000 172.976
21545344.000 4578765.000 -1194.398
21544176.000 4578210.000 -2629.599
21545450.000 4580582.000 179.351
21545680.000 4580320.500 200.864
21545776.000 4580209.000 207.923
21546328.000 4579540.500 232.641
21546492.000 4579334.500 234.444
21545954.000 4579999.500 221.125
21546100.000 4579825.000 230.160
21546506.000 4579317.500 234.678
21546508.000 4579310.000 234.444
21546044.000 4577100.500 -1158.368
21544644.000 4577100.500 -2605.579
21546508.000 4579308.000 234.387
21546706.000 4578780.000 221.194
21546892.000 4578279.500 206.117
21546908.000 4578237.000 205.102
21546918.000 4578212.000 204.816
21546970.000 4578090.500 207.956
21547162.000 4577642.500 220.629
21547370.000 4577194.000 251.285
21547412.000 4577100.500 256.521
21545240.000 4573288.500 -1299.250
21544108.000 4574559.000 -2699.500
21547396.000 4577016.000 253.673
21547392.000 4576998.500 253.019
21547412.000 4577096.500 256.646
21547214.000 4576216.000 212.080
21547186.000 4576101.000 203.861
21547294.000 4576521.000 237.849
21547160.000 4575987.000 197.120
21547102.000 4575710.500 186.034
21546998.000 4575171.500 177.806
21546782.000 4574060.500 154.638
21547018.000 4575264.500 181.634
21546712.000 4573760.500 136.187
21546894.000 4574546.500 182.585
21546884.000 4574499.500 181.635
21546702.000 4573719.500 133.618
21546718.000 4573783.500 138.707
21546568.000 4573141.500 100.456
21546454.000 4572501.000 98.733
21546446.000 4572446.000 98.998
21546440.000 4572415.500 99.074
21546422.000 4572311.000 99.031
21546370.000 4572019.500 99.492
21544972.000 4572018.000 -1299.250
21543572.000 4572018.000 -2699.500
21546370.000 4572018.000 99.494
21546216.000 4571736.500 98.273
21546172.000 4571657.000 97.311
21545950.000 4571255.500 95.523
21545740.000 4570857.500 101.673
21545656.000 4570704.000 101.844
21545498.000 4570414.000 101.700
21545390.000 4570208.000 105.515
21545298.000 4570037.500 108.233
21545096.000 4569653.500 114.898
21544948.000 4569385.500 113.193
21544778.000 4569065.500 117.380
21544534.000 4568603.500 125.402
21544510.000 4568561.500 125.266
21544274.000 4568043.000 171.018
21544520.000 4568579.000 125.662
21543390.000 4568988.500 -1228.832
21544248.000 4567994.500 172.200
21544240.000 4567978.500 172.162
21544268.000 4568029.500 172.217
21542862.000 4567978.500 -1228.832
21542516.000 4569998.000 -2652.555
21544124.000 4567809.500 174.240
21543844.000 4567406.500 174.125
21543828.000 4567386.500 173.299
21543512.000 4566966.500 149.154
21543382.000 4566802.000 131.955
21543248.000 4566588.000 148.357
21542990.000 4566139.500 202.894
21542868.000 4565896.000 251.099
21542646.000 4565442.500 347.363
21542462.000 4565159.000 361.092
21542432.000 4565116.000 361.595
21542602.000 4565364.000 358.695
21541506.000 4565819.500 -1079.207
21541462.000 4567978.500 -2652.555
21541004.000 4565190.500 -1079.207
21540558.000 4566539.000 -2552.805
21542422.000 4565102.000 361.790
21542292.000 4564954.000 364.169
21542142.000 4564759.000 388.922
21540758.000 4563244.000 364.641
21540702.000 4563187.500 360.462
21540766.000 4563252.000 365.234
21541206.000 4563713.500 389.968
21540918.000 4563404.500 379.893
21541620.000 4564167.500 397.138
21541382.000 4563897.000 402.250
21541908.000 4564485.000 400.040
21542078.000 4564676.500 399.422
21540398.000 4562867.000 344.107
21540180.000 4562647.500 322.846
21540124.000 4562587.500 321.151
21539680.000 4562075.500 336.482
21538916.000 4562907.000 -1115.811
21539552.000 4565281.000 -2552.805
21539668.000 4562060.500 336.791
21538364.000 4561875.000 -1131.046
21539670.000 4562064.000 336.828
21537792.000 4563070.500 -2587.364
21539666.000 4562058.000 336.779
21539664.000 4562054.500 337.036
21539652.000 4562025.500 339.269
21539612.000 4561943.500 343.934
21538934.000 4560679.000 325.272
21537764.000 4561095.500 -1131.046
21539366.000 4561427.500 373.251
21539310.000 4561309.000 380.330
21539116.000 4560964.000 364.562
21538950.000 4560667.000 350.996
21538878.000 4560569.000 342.268
21538754.000 4560398.500 327.393
21538926.000 4560631.000 349.351
21538420.000 4559959.500 275.334
21538816.000 4560482.000 337.329
21537946.000 4559367.500 176.861
21538082.000 4559416.500 292.740
21538010.000 4559310.500 289.334
21538010.000 4559310.000 289.332
21538040.000 4559352.500 291.616
21536892.000 4557873.000 138.524
21536916.000 4557896.000 146.792
21536836.000 4557817.000 117.885
21536830.000 4557812.500 116.242
21536720.000 4557703.000 76.374
21536718.000 4557702.000 75.903
21536712.000 4557694.500 72.688
21536588.000 4557561.500 14.725
21536714.000 4557698.000 74.074
21536580.000 4557553.000 11.104
21536574.000 4557545.000 7.678
21536350.000 4557304.500 -97.195
21536074.000 4557784.500 -1319.354
21536574.000 4557545.000 7.723
21536320.000 4557270.000 -112.051
21537006.000 4559936.500 -1151.559
21536088.000 4560739.000 -2601.039
21536594.000 4561512.000 -2587.364
21535424.000 4561928.000 -4043.682
21537222.000 4564266.000 -4043.682
21535172.000 4561542.000 -4050.520
21534656.000 4562201.500 -5000.000
21535330.000 4559980.000 -2601.039
21534032.000 4560402.500 -4050.520
21534620.000 4558929.000 -2691.882
21534570.000 4562067.500 -5000.000
21534178.000 4561674.500 -5000.000
21533184.000 4560679.500 -5000.000
21533678.000 4559877.000 -4095.941
21533072.000 4560487.500 -5000.000
21534020.000 4558129.500 -2691.882
21534584.000 4557135.500 -1613.987
21532778.000 4558678.000 -4095.941
21532508.000 4556841.000 -3043.753
21532750.000 4560061.000 -5000.000
21531978.000 4559031.500 -5000.000
21531378.000 4557172.000 -4253.028
21531604.000 4558566.500 -5000.000
21531534.000 4557134.000 -4097.510
21531566.000 4557126.000 -4064.793
21531962.000 4556971.500 -3584.214
21531472.000 4558403.000 -5000.000
21531058.000 4557888.000 -5000.000
21530848.000 4557300.500 -4780.528
21530722.000 4557393.500 -5000.000
21532860.000 4556757.000 -2695.020
21532908.000 4556746.000 -2648.131
21533330.000 4556617.500 -2189.083
21533512.000 4556595.000 -2040.683
21533960.000 4556541.000 -1675.128
21534158.000 4556488.500 -1495.463
21534266.000 4556499.000 -1454.896
21534338.000 4556505.500 -1427.692
21534366.000 4556511.500 -1419.395
21534516.000 4556493.500 -1292.167
21535250.000 4557697.500 -1427.807
21534608.000 4556482.000 -1215.603
21534624.000 4556480.000 -1202.337
21534636.000 4556478.500 -1192.013
21534644.000 4556477.500 -1183.959
21534704.000 4556470.000 -1133.587
21534814.000 4556514.000 -1129.192
21534844.000 4556525.500 -1127.978
21534890.000 4556543.500 -1126.141
21534968.000 4556574.500 -1123.021
21535470.000 4556775.000 -1102.928
21535478.000 4556706.000 -992.086
21535480.000 4556684.000 -957.239
21535480.000 4556668.500 -932.363
21535482.000 4556658.000 -914.178
21535488.000 4556599.000 -819.597
21535492.000 4556572.500 -777.264
21535492.000 4556553.500 -747.836
21535892.000 4556807.500 -312.906
21535990.000 4556914.500 -266.489
21535776.000 4556684.000 -366.594
21535892.000 4556807.500 -312.878
21535742.000 4556645.500 -383.543
21535716.000 4556618.000 -395.555
21535490.000 4556541.000 -736.278
21535698.000 4556600.000 -403.373
21535694.000 4556593.500 -405.989
21535678.000 4556578.500 -412.828
21535690.000 4556590.000 -407.529
21535478.000 4556500.000 -701.155
21535662.000 4556560.000 -420.827
21535476.000 4556485.500 -687.507
21535634.000 4556529.500 -433.915
21535468.000 4556464.500 -669.833
21535602.000 4556495.500 -448.700
21535462.000 4556435.500 -643.442
21535588.000 4556480.000 -455.242
21535594.000 4556486.000 -452.359
21535584.000 4556475.500 -457.222
21535576.000 4556466.000 -461.272
21535552.000 4556441.500 -471.991
21535564.000 4556454.500 -466.058
21535538.000 4556426.500 -478.706
21535504.000 4556388.000 -494.692
21535438.000 4556346.500 -567.625
21535462.000 4556342.500 -514.553
21535426.000 4556305.500 -530.794
21535426.000 4556305.500 -530.690
21535602.000 4556495.000 -448.541
21536032.000 4556960.000 -246.925
21536050.000 4556980.000 -238.098
21536032.000 4556960.000 -246.911
21536128.000 4557063.500 -201.664
21536046.000 4556975.500 -240.054
21536154.000 4557091.500 -189.360
21536154.000 4557091.500 -189.344
21535274.000 4563004.000 -5000.000
21536848.000 4565051.500 -5000.000
21536910.000 4565170.500 -5000.000
21537408.000 4564610.500 -4038.604
21537144.000 4565431.500 -5000.000
21538162.000 4563759.000 -2577.207
21538102.000 4565371.500 -4026.402
21539610.000 4567259.000 -4026.402
21538984.000 4567734.500 -5000.000
21538472.000 4567094.000 -5000.000
21539154.000 4567978.500 -5000.000
21540062.000 4567978.500 -4076.277
21540522.000 4570599.500 -5000.000
21541644.000 4571008.000 -4076.277
21541078.000 4571663.500 -5000.000
21540562.000 4570676.000 -5000.000
21541272.000 4572018.000 -5000.000
21542172.000 4572018.000 -4099.750
21541560.000 4573379.000 -5000.000
21542976.000 4575830.000 -4099.750
21542248.000 4576647.000 -5000.000
21542308.000 4576984.000 -5000.000
21542328.000 4577100.500 -5000.000
21543244.000 4577100.500 -4052.790
21542250.000 4577294.000 -5000.000
21543010.000 4577655.500 -4064.799
21543556.000 4578960.500 -2657.354
21542700.000 4578030.500 -4078.677
21541864.000 4579554.000 -4078.677
21541128.000 4579280.000 -5000.000
21541424.000 4578744.000 -5000.000
21541034.000 4579367.000 -5000.000
21541588.000 4579795.500 -4090.253
21540608.000 4579750.000 -5000.000
21541648.000 4581179.000 -2680.506
21540388.000 4580875.000 -4090.253
21540388.000 4582074.000 -4090.253
21539576.000 4582135.500 -5000.000
21539576.000 4581710.500 -5000.000
21539538.000 4582328.500 -5000.000
21540284.000 4582619.000 -4088.040
21539364.000 4582379.000 -5000.000
21539786.000 4582759.000 -4094.262
21538702.000 4582592.500 -5000.000
21537106.000 4583107.500 -5000.000
21536936.000 4583534.000 -5000.000
21536524.000 4584564.000 -5000.000
21539576.000 4580678.500 -5000.000
21542146.000 4577427.500 -5000.000
21536926.000 4557907.500 150.993
21536932.000 4557912.000 152.796
21536934.000 4557913.500 153.207
21536934.000 4557914.500 153.747
21536940.000 4557921.000 156.114
21536950.000 4557930.000 159.935
21537126.000 4558139.000 195.865
21537214.000 4558243.500 213.649
21537514.000 4558606.500 271.865
21537612.000 4558737.000 282.649
21536300.000 4585098.000 -5000.000
21535982.000 4585877.500 -5000.000
21535026.000 4588228.000 -5000.000
21535002.000 4588406.000 -5000.000
21534920.000 4588939.500 -5000.000

POLYGONS 485 1940
3 277 276 257
3 188 196 182
3 200 203 205
3 353 350 351
3 181 183 348
3 294 293 238
3 30 29 3
3 291 290 238
3 102 105 103
3 91 92 88
3 32 35 382
3 249 254 253
3 75 76 72
3 290 289 281
3 166 167 162
3 59 60 57
3 122 123 120
3 211 210 221
3 316 314 315
3 83 88 89
3 343 340 341
3 95 99 363
3 181 167 166
3 162 167 145
3 32 383 33
3 139 140 120
3 142 143 120
3 24 21 22
3 307 309 308
3 115 116 109
3 112 113 109
3 209 210 203
3 169 170 166
3 68 69 62
3 155 156 144
3 243 242 244
3 61 62 59
3 237 240 238
3 54 57 36
3 128 129 120
3 101 102 98
3 71 72 62
3 166 180 181
3 6 9 8
3 160 162 144
3 206 207 203
3 44 45 42
3 125 126 120
3 160 165 163
3 340 245 339
3 31 396 397
3 100 101 98
3 156 157 144
3 62 72 73
3 35 379 380
3 357 356 355
3 40 41 36
3 221 241 211
3 141 142 120
3 21 18 19
3 23 28 399
3 20 19 14
3 371 373 73
3 145 354 121
3 342 245 340
3 153 154 144
3 76 77 72
3 299 302 301
3 59 62 63
3 278 277 257
3 202 206 203
3 264 262 258
3 325 324 326
3 201 342 343
3 41 42 36
3 344 343 345
3 211 241 243
3 105 106 103
3 129 130 120
3 364 365 363
3 371 73 81
3 213 214 210
3 149 150 144
3 342 340 343
3 343 344 201
3 377 376 378
3 316 315 317
3 164 168 166
3 280 257 281
3 131 137 133
3 103 104 98
3 347 344 345
3 111 112 109
3 126 128 120
3 12 2 13
3 3 27 20
3 117 118 109
3 118 119 109
3 134 135 131
3 238 281 248
3 74 75 72
3 79 80 72
3 70 71 62
3 207 208 203
3 67 68 62
3 216 217 210
3 305 306 307
3 177 178 166
3 35 381 382
3 377 373 376
3 363 365 89
3 187 188 182
3 212 213 210
3 244 245 205
3 18 16 14
3 249 253 252
3 325 316 324
3 316 323 324
3 316 321 323
3 104 107 98
3 273 272 256
3 236 237 221
3 138 139 120
3 64 65 62
3 77 78 72
3 343 341 346
3 331 330 238
3 44 47 45
3 42 55 43
3 47 48 45
3 341 340 339
3 315 318 317
3 109 121 110
3 46 53 42
3 279 278 257
3 136 138 120
3 280 279 257
3 131 133 120
3 61 64 62
3 262 267 263
3 348 350 181
3 182 200 201
3 170 171 166
3 0 1 2
3 42 43 36
3 146 147 144
3 84 369 371
3 362 361 385
3 389 388 224
3 396 31 33
3 379 35 37
3 295 294 238
3 140 141 120
3 335 336 333
3 246 249 251
3 159 160 144
3 29 27 3
3 66 67 62
3 376 373 374
3 199 200 182
3 249 246 248
3 84 365 369
3 4 0 2
3 350 348 351
3 348 347 349
3 286 285 281
3 180 183 181
3 60 377 379
3 258 262 261
3 235 236 221
3 335 333 238
3 38 36 30
3 167 350 354
3 327 325 326
3 348 349 352
3 148 149 144
3 107 108 98
3 113 114 109
3 12 11 2
3 208 209 203
3 232 233 221
3 379 377 378
3 123 127 125
3 197 198 182
3 240 335 238
3 343 346 345
3 28 397 398
3 98 109 110
3 379 378 380
3 222 223 221
3 186 192 190
3 81 73 72
3 71 74 72
3 219 221 210
3 330 332 300
3 43 54 36
3 37 34 36
3 256 254 250
3 181 350 167
3 178 184 182
3 337 244 247
3 119 120 109
3 23 26 22
3 87 90 88
3 29 32 31
3 247 246 251
3 130 131 120
3 231 234 232
3 259 258 256
3 333 331 238
3 172 173 166
3 65 66 62
3 372 375 374
3 168 169 166
3 210 211 203
3 145 121 120
3 184 185 182
3 248 242 238
3 31 32 33
3 99 360 362
3 6 8 5
3 224 392 391
3 108 109 98
3 96 97 95
3 305 298 304
3 390 224 391
3 29 34 32
3 267 262 268
3 7 6 2
3 316 320 321
3 305 304 306
3 314 312 313
3 84 89 365
3 58 61 59
3 363 99 362
3 144 162 145
3 57 37 36
3 226 221 224
3 400 23 399
3 186 187 182
3 372 369 370
3 97 98 95
3 27 28 23
3 164 166 162
3 363 362 364
3 90 91 88
3 224 394 393
3 257 250 281
3 242 246 244
3 298 303 304
3 83 84 81
3 228 229 221
3 245 244 337
3 367 364 385
3 15 13 16
3 217 219 210
3 199 202 200
3 233 235 221
3 95 98 99
3 229 230 221
3 388 387 224
3 94 95 88
3 98 110 99
3 258 254 256
3 312 310 311
3 390 389 224
3 369 372 371
3 15 16 17
3 29 31 27
3 186 189 187
3 351 348 352
3 259 266 258
3 154 155 144
3 289 288 281
3 11 10 2
3 250 254 249
3 221 237 238
3 175 176 166
3 215 216 210
3 226 228 221
3 355 354 353
3 365 366 368
3 211 243 203
3 23 400 26
3 31 28 27
3 186 190 189
3 183 344 348
3 292 291 238
3 245 337 338
3 60 63 377
3 271 259 256
3 10 7 2
3 243 205 203
3 60 379 37
3 199 204 202
3 37 35 34
3 38 39 36
3 114 115 109
3 28 398 399
3 185 186 182
3 314 313 315
3 143 144 120
3 287 286 281
3 224 395 394
3 275 274 256
3 268 269 270
3 248 250 249
3 372 370 384
3 186 195 194
3 254 255 253
3 19 23 22
3 238 242 241
3 219 222 221
3 62 73 63
3 97 100 98
3 365 364 366
3 55 56 43
3 330 300 238
3 231 232 221
3 366 364 367
3 83 89 84
3 315 329 318
3 230 231 221
3 200 342 201
3 15 12 13
3 255 258 260
3 150 151 144
3 163 164 162
3 369 365 368
3 224 393 392
3 2 14 13
3 58 59 57
3 173 174 166
3 1 3 2
3 110 356 360
3 214 215 210
3 221 238 241
3 261 262 263
3 354 350 353
3 298 301 303
3 305 307 308
3 41 44 42
3 47 49 48
3 93 94 88
3 190 191 189
3 244 246 247
3 1 38 30
3 227 226 224
3 342 205 245
3 18 14 19
3 354 356 121
3 2 3 20
3 84 371 81
3 356 354 355
3 362 360 361
3 85 86 83
3 316 319 320
3 196 197 182
3 102 103 98
3 123 125 120
3 290 281 238
3 285 284 281
3 360 356 359
3 82 83 81
3 63 373 377
3 202 203 200
3 274 273 256
3 87 88 83
3 262 269 268
3 178 180 166
3 157 158 144
3 23 19 20
3 25 21 24
3 143 146 144
3 129 132 130
3 283 282 281
3 1 30 3
3 59 63 60
3 363 89 95
3 201 183 182
3 298 299 301
3 176 177 166
3 256 250 257
3 316 317 319
3 20 27 23
3 151 152 144
3 30 34 29
3 6 5 2
3 201 344 183
3 92 93 88
3 222 225 223
3 216 220 217
3 16 13 14
3 108 111 109
3 99 110 360
3 171 172 166
3 258 261 260
3 293 292 238
3 94 96 95
3 109 120 121
3 281 250 248
3 45 46 42
3 192 193 190
3 387 386 224
3 178 182 180
3 320 322 321
3 310 305 308
3 78 79 72
3 119 122 120
3 86 87 83
3 348 344 347
3 119 124 122
3 282 280 281
3 298 297 238
3 370 369 368
3 116 117 109
3 265 264 258
3 209 212 210
3 69 70 62
3 356 357 358
3 275 256 257
3 95 89 88
3 296 295 238
3 82 85 83
3 327 326 328
3 241 242 243
3 200 205 342
3 372 373 371
3 266 265 258
3 39 40 36
3 356 358 359
3 248 246 242
3 80 81 72
3 176 179 177
3 312 311 313
3 32 382 383
3 152 153 144
3 35 32 34
3 49 52 51
3 381 35 380
3 272 271 256
3 249 252 251
3 236 239 237
3 254 258 255
3 331 334 330
3 386 227 224
3 198 199 182
3 133 136 120
3 49 51 50
3 243 244 205
3 49 50 48
3 20 14 2
3 310 308 311
3 174 175 166
3 110 121 356
3 276 275 257
3 297 296 238
3 144 145 120
3 5 4 2
3 300 299 238
3 158 161 159
3 186 194 192
3 147 148 144
3 361 360 359
3 54 58 57
3 223 224 221
3 145 167 354
3 60 37 57
3 21 19 22
3 30 36 34
3 28 31 397
3 130 134 131
3 288 287 281
3 364 362 385
3 372 384 375
3 63 73 373
3 80 82 81
3 182 183 180
3 299 298 238
3 160 163 162
3 339 245 338
3 284 283 281
3 373 372 374
3 158 159 144
3 215 218 216

POINT_DATA 401
COLOR_SCALARS GocadColor 4
1 0 0 0.5
1 0 0 0.5
1 0 0 0.5
1 0 0 0.5
1 0 0 0.5
1 0 0 0.5
1 0 0 0.5
1 0 0 0.5
1 0 0 0.5
1 0 0 0.5
1 0 0 0.5
1 0 0 0.5
1 0 0 0.5
1 0 0 0.5
1 0 0 0.5
1 0 0 0.5
1 0 0 0.5
1 0 0 0.5
1 0 0 0.5
1 0 0 0.5
1 0 0 0.5
1 0 0 0.5
1 0 0 0.5
1 0 0 0.5
1 0 0 0.5
1 0 0 0.5
1 0 0 0.5
1 0 0 0.5
1 0 0 0.5
1 0 0 0.5
1 0 0 0.5
1 0 0 0.5
1 0 0 0.5
1 0 0 0.5
1 0 0 0.5
1 0 0 0.5
1 0 0 0.5
1 0 0 0.5
1 0 0 0.5
1 0 0 0.5
1 0 0 0.5
1 0 0 0.5
1 0 0 0.5
1 0 0 0.5
1 0 0 0.5
1 0 0 0.5
1 0 0 0.5
1 0 0 0.5
1 0 0 0.5
1 0 0 0.5
1 0 0 0.5
1 0 0 0.5
1 0 0 0.5
1 0 0 0.5
1 0 0 0.5
1 0 0 0.5
1 0 0 0.5
1 0 0 0.5
1 0 0 0.5
1 0 0 0.5
1 0 0 0.5
1 0 0 0.5
1 0 0 0.5
1 0 0 0.5
1 0 0 0.5
1 0 0 0.5
1 0 0 0.5
1 0 0 0.5
1 0 0 0.5
1 0 0 0.5
1 0 0 0.5
1 0 0 0.5
1 0 0 0.5
1 0 0 0.5
1 0 0 0.5
1 0 0 0.5
1 0 0 0.5
1 0 0 0.5
1 0 0 0.5
1 0 0 0.5
1 0 0 0.5
1 0 0 0.5
1 0 0 0.5
1 0 0 0.5
1 0 0 0.5
1 0 0 0.5
1 0 0 0.5
1 0 0 0.5
1 0 0 0.5
1 0 0 0.5
1 0 0 0.5
1 0 0 0.5
1 0 0 0.5
1 0 0 0.5
1 0 0 0.5
1 0 0 0.5
1 0 0 0.5
1 0 0 0.5
1 0 0 0.5
1 0 0 0.5
1 0 0 0.5
1 0 0 0.5
1 0 0 0.5
1 0 0 0.5
1 0 0 0.5
1 0 0 0.5
1 0 0 0.5
1 0 0 0.5
1 0 0 0.5
1 0 0 0.5
1 0 0 0.5
1 0 0 0.5
1 0 0 0.5
1 0 0 0.5
1 0 0 0.5
1 0 0 0.5
1 0 0 0.5
1 0 0 0.5
1 0 0 0.5
1 0 0 0.5
1 0 0 0.5
1 0 0 0.5
1 0 0 0.5
1 0 0 0.5
1 0 0 0.5
1 0 0 0.5
1 0 0 0.5
1 0 0 0.5
1 0 0 0.5
1 0 0 0.5
1 0 0 0.5
1 0 0 0.5
1 0 0 0.5
1 0 0 0.5
1 0 0 0.5
1 0 0 0.5
1 0 0 0.5
1 0 0 0.5
1 0 0 0.5
1 0 0 0.5
1 0 0 0.5
1 0 0 0.5
1 0 0 0.5
1 0 0 0.5
1 0 0 0.5
1 0 0 0.5
1 0 0 0.5
1 0 0 0.5
1 0 0 0.5
1 0 0 0.5
1 0 0 0.5
1 0 0 0.5
1 0 0 0.5
1 0 0 0.5
1 0 0 0.5
1 0 0 0.5
1 0 0 0.5
1 0 0 0.5
1 0 0 0.5
1 0 0 0.5
1 0 0 0.5
1 0 0 0.5
1 0 0 0.5
1 0 0 0.5
1 0 0 0.5
1 0 0 0.5
1 0 0 0.5
1 0 0 0.5
1 0 0 0.5
1 0 0 0.5
1 0 0 0.5
1 0 0 0.5
1 0 0 0.5
1 0 0 0.5
1 0 0 0.5
1 0 0 0.5
1 0 0 0.5
1 0 0 0.5
1 0 0 0.5
1 0 0 0.5
1 0 0 0.5
1 0 0 0.5
1 0 0 0.5
1 0 0 0.5
1 0 0 0.5
1 0 0 0.5
1 0 0 0.5
1 0 0 0.5
1 0 0 0.5
1 0 0 0.5
1 0 0 0.5
1 0 0 0.5
1 0 0 0.5
1 0 0 0.5
1 0 0 0.5
1 0 0 0.5
1 0 0 0.5
1 0 0 0.5
1 0 0 0.5
1 0 0 0.5
1 0 0 0.5
1 0 0 0.5
1 0 0 0.5
1 0 0 0.5
1 0 0 0.5
1 0 0 0.5
1 0 0 0.5
1 0 0 0.5
1 0 0 0.5
1 0 0 0.5
1 0 0 0.5
1 0 0 0.5
1 0 0 0.5
1 0 0 0.5
1 0 0 0.5
1 0 0 0.5
1 0 0 0.5
1 0 0 0.5
1 0 0 0.5
1 0 0 0.5
1 0 0 0.5
1 0 0 0.5
1 0 0 0.5
1 0 0 0.5
1 0 0 0.5
1 0 0 0.5
1 0 0 0.5
1 0 0 0.5
1 0 0 0.5
1 0 0 0.5
1 0 0 0.5
1 0 0 0.5
1 0 0 0.5
1 0 0 0.5
1 0 0 0.5
1 0 0 0.5
1 0 0 0.5
1 0 0 0.5
1 0 0 0.5
1 0 0 0.5
1 0 0 0.5
1 0 0 0.5
1 0 0 0.5
1 0 0 0.5
1 0 0 0.5
1 0 0 0.5
1 0 0 0.5
1 0 0 0.5
1 0 0 0.5
1 0 0 0.5
1 0 0 0.5
1 0 0 0.5
1 0 0 0.5
1 0 0 0.5
1 0 0 0.5
1 0 0 0.5
1 0 0 0.5
1 0 0 0.5
1 0 0 0.5
1 0 0 0.5
1 0 0 0.5
1 0 0 0.5
1 0 0 0.5
1 0 0 0.5
1 0 0 0.5
1 0 0 0.5
1 0 0 0.5
1 0 0 0.5
1 0 0 0.5
1 0 0 0.5
1 0 0 0.5
1 0 0 0.5
1 0 0 0.5
1 0 0 0.5
1 0 0 0.5
1 0 0 0.5
1 0 0 0.5
1 0 0 0.5
1 0 0 0.5
1 0 0 0.5
1 0 0 0.5
1 0 0 0.5
1 0 0 0.5
1 0 0 0.5
1 0 0 0.5
1 0 0 0.5
1 0 0 0.5
1 0 0 0.5
1 0 0 0.5
1 0 0 0.5
1 0 0 0.5
1 0 0 0.5
1 0 0 0.5
1 0 0 0.5
1 0 0 0.5
1 0 0 0.5
1 0 0 0.5
1 0 0 0.5
1 0 0 0.5
1 0 0 0.5
1 0 0 0.5
1 0 0 0.5
1 0 0 0.5
1 0 0 0.5
1 0 0 0.5
1 0 0 0.5
1 0 0 0.5
1 0 0 0.5
1 0 0 0.5
1 0 0 0.5
1 0 0 0.5
1 0 0 0.5
1 0 0 0.5
1 0 0 0.5
1 0 0 0.5
1 0 0 0.5
1 0 0 0.5
1 0 0 0.5
1 0 0 0.5
1 0 0 0.5
1 0 0 0.5
1 0 0 0.5
1 0 0 0.5
1 0 0 0.5
1 0 0 0.5
1 0 0 0.5
1 0 0 0.5
1 0 0 0.5
1 0 0 0.5
1 0 0 0.5
1 0 0 0.5
1 0 0 0.5
1 0 0 0.5
1 0 0 0.5
1 0 0 0.5
1 0 0 0.5
1 0 0 0.5
1 0 0 0.5
1 0 0 0.5
1 0 0 0.5
1 0 0 0.5
1 0 0 0.5
1 0 0 0.5
1 0 0 0.5
1 0 0 0.5
1 0 0 0.5
1 0 0 0.5
1 0 0 0.5
1 0 0 0.5
1 0 0 0.5
1 0 0 0.5
1 0 0 0.5
1 0 0 0.5
1 0 0 0.5
1 0 0 0.5
1 0 0 0.5
1 0 0 0.5
1 0 0 0.5
1 0 0 0.5
1 0 0 0.5
1 0 0 0.5
1 0 0 0.5
1 0 0 0.5
1 0 0 0.5
1 0 0 0.5
1 0 0 0.5
1 0 0 0.5
1 0 0 0.5
1 0 0 0.5
1 0 0 0.5
1 0 0 0.5
1 0 0 0.5
1 0 0 0.5
1 0 0 0.5
1 0 0 0.5
1 0 0 0.5
1 0 0 0.5
1 0 0 0.5
1 0 0 0.5
1 0 0 0.5
1 0 0 0.5
1 0 0 0.5
1 0 0 0.5
1 0 0 0.5
1 0 0 0.5
1 0 0 0.5
1 0 0 0.5
1 0 0 0.5
1 0 0 0.5
1 0 0 0.5
1 0 0 0.5
1 0 0 0.5
1 0 0 0.5
1 0 0 0.5
1 0 0 0.5
1 0 0 0.5
1 0 0 0.5
1 0 0 0.5
1 0 0 0.5
1 0 0 0.5
1 0 0 0.5

