# vtk DataFile Version 3.0
Gocad TSurf to VTK
ASCII
DATASET POLYDATA
POINTS 311 float
21540710.000 4560860.500 240.754
21540502.000 4559810.500 206.700
21540502.000 4559810.500 206.987
21540502.000 4559811.500 208.600
21540504.000 4559807.000 200.700
21540556.000 4559685.000 3.425
21541196.000 4560468.000 -1188.859
21540616.000 4559549.000 -216.449
21540722.000 4560869.000 239.197
21542884.000 4561909.000 -1252.465
21540730.000 4560876.500 237.765
21542808.000 4561034.000 -2668.310
21543840.000 4561849.000 -2668.310
21541684.000 4560073.000 -2625.906
21542398.000 4560411.000 -3130.901
21540672.000 4559026.500 -1251.873
21541428.000 4559506.000 -2620.441
21540694.000 4559058.000 -951.798
21540652.000 4558953.000 -1082.314
21540696.000 4559059.000 -950.576
21540696.000 4559060.000 -949.711
21540696.000 4559060.500 -948.849
21540698.000 4559064.000 -944.904
21540698.000 4559065.000 -943.661
21540722.000 4559126.000 -866.988
21540758.000 4559214.000 -757.601
21540758.000 4559214.500 -756.776
21540742.000 4559252.500 -695.628
21540742.000 4559254.000 -693.296
21540716.000 4559314.000 -596.442
21540712.000 4559324.000 -580.044
21540712.000 4559325.000 -578.482
21540708.000 4559330.500 -569.155
21540682.000 4559393.500 -467.558
21540674.000 4559411.000 -439.158
21540670.000 4559422.000 -421.581
21540666.000 4559428.000 -411.989
21540666.000 4559429.000 -410.019
21540632.000 4559507.000 -284.137
21540618.000 4559542.000 -227.541
21540624.000 4558883.500 -1168.877
21540592.000 4558837.500 -1220.918
21540592.000 4558837.000 -1220.955
21540558.000 4558787.000 -1277.923
21540558.000 4558786.500 -1278.154
21540552.000 4558778.000 -1287.635
21540552.000 4558777.500 -1287.872
21540552.000 4558777.500 -1288.233
21540550.000 4558777.000 -1288.754
21540678.000 4558858.000 -1560.215
21540678.000 4558858.000 -1560.457
21540678.000 4558858.000 -1560.139
21540548.000 4558759.000 -1313.101
21540678.000 4558857.500 -1559.913
21540542.000 4558701.500 -1391.866
21540542.000 4558698.000 -1396.981
21540542.000 4558707.500 -1383.822
21540542.000 4558698.000 -1396.904
21540542.000 4558698.000 -1396.920
21540688.000 4558871.000 -1574.183
21540688.000 4558871.500 -1574.807
21540706.000 4558890.000 -1591.169
21540812.000 4558999.000 -1692.439
21540812.000 4558999.500 -1693.171
21540814.000 4559001.000 -1695.756
21540872.000 4559044.500 -1775.697
21541030.000 4559167.500 -2000.345
21541442.000 4559518.000 -2642.104
21541450.000 4559524.500 -2654.354
21541450.000 4559524.500 -2654.373
21541664.000 4559790.500 -2861.178
21541676.000 4559808.000 -2867.908
21541592.000 4559672.000 -2817.135
21541546.000 4559598.500 -2789.105
21541676.000 4559808.000 -2868.005
21541808.000 4559973.000 -2990.875
21541676.000 4559808.000 -2867.935
21541830.000 4559990.000 -2996.337
21541974.000 4560097.000 -3030.580
21542778.000 4560692.500 -3221.037
21543072.000 4560896.000 -3270.898
21543244.000 4561006.000 -3313.999
21543394.000 4561102.500 -3351.270
21543492.000 4561166.000 -3376.383
21543544.000 4561200.000 -3389.548
21543394.000 4561102.500 -3351.287
21543560.000 4561211.000 -3392.247
21543562.000 4561212.000 -3392.494
21543562.000 4561212.000 -3392.500
21543654.000 4561275.500 -3408.524
21543896.000 4561442.500 -3450.403
21544094.000 4561579.500 -3484.762
21544312.000 4561731.500 -3524.729
21544404.000 4561795.500 -3541.405
21544404.000 4561795.500 -3541.429
21544412.000 4561801.500 -3542.378
21544426.000 4561812.500 -3543.896
21544644.000 4561975.000 -3566.184
21544828.000 4562112.500 -3584.778
21544874.000 4562664.500 -2702.133
21543400.000 4562316.500 -1252.465
21544828.000 4562112.500 -3584.802
21544828.000 4562113.000 -3584.635
21546732.000 4563305.500 -2702.133
21545878.000 4563860.000 -1303.199
21545098.000 4562242.000 -3524.868
21545606.000 4562486.500 -3411.450
21545694.000 4562528.500 -3391.910
21545818.000 4562588.500 -3363.947
21546292.000 4562815.500 -3258.725
21546292.000 4562815.500 -3258.667
21546570.000 4562951.500 -3192.827
21546570.000 4562951.500 -3192.810
21546974.000 4563148.500 -3097.563
21547340.000 4563324.000 -3007.356
21547588.000 4563443.000 -2945.945
21548052.000 4563655.000 -2847.559
21548590.000 4563946.500 -2657.820
21548664.000 4564821.500 -1236.730
21548528.000 4563873.000 -2746.544
21548586.000 4563899.500 -2734.273
21549038.000 4564122.000 -2657.820
21549610.000 4565191.500 -1236.730
21549252.000 4564227.000 -2621.725
21549478.000 4564337.500 -2583.652
21549478.000 4564338.000 -2583.508
21549500.000 4564348.500 -2579.988
21549500.000 4564349.000 -2579.872
21550338.000 4564768.500 -2425.937
21550898.000 4565046.000 -2319.050
21550920.000 4565056.000 -2315.106
21550950.000 4565071.000 -2309.057
21552448.000 4566301.000 -1197.043
21552470.000 4567141.000 211.444
21550950.000 4565071.500 -2308.826
21551378.000 4565283.500 -2227.594
21551424.000 4565306.500 -2218.734
21551926.000 4565535.500 -2156.442
21552366.000 4565736.000 -2101.860
21552366.000 4565736.000 -2101.794
21552394.000 4565749.000 -2098.223
21552400.000 4565751.500 -2097.563
21552574.000 4565845.500 -2096.462
21552676.000 4565899.500 -2097.686
21553044.000 4566094.000 -2101.942
21552956.000 4566574.500 -1197.043
21552520.000 4567162.000 214.266
21553044.000 4566094.000 -2101.943
21553184.000 4566169.000 -2104.019
21553232.000 4566194.000 -2104.665
21553396.000 4566280.000 -2104.952
21553418.000 4566291.000 -2104.989
21553418.000 4566291.000 -2104.990
21553894.000 4566539.000 -2105.627
21554090.000 4566641.000 -2105.790
21554090.000 4566641.000 -2105.791
21554260.000 4566761.500 -2052.781
21554402.000 4566862.000 -2008.194
21554424.000 4566877.000 -2001.511
21554442.000 4566889.000 -1995.846
21554484.000 4567394.500 -1160.324
21552532.000 4567168.500 214.832
21554442.000 4566889.500 -1995.677
21554442.000 4566889.500 -1995.521
21554846.000 4567419.000 -1160.324
21554564.000 4568255.500 262.436
21554568.000 4566942.000 -1922.129
21554626.000 4566966.000 -1888.468
21554952.000 4567102.000 -1698.996
21555192.000 4567199.500 -1556.542
21555544.000 4567342.000 -1347.616
21555828.000 4567457.500 -1178.487
21555828.000 4567457.500 -1178.472
21555894.000 4567482.000 -1142.691
21555916.000 4567490.500 -1130.377
21556000.000 4568328.000 262.629
21555954.000 4568325.000 261.607
21555928.000 4567495.000 -1124.012
21556234.000 4567605.000 -955.986
21556236.000 4567606.000 -954.973
21556016.000 4568328.500 262.933
21556256.000 4567613.500 -943.826
21556184.000 4568337.000 266.434
21556472.000 4568350.000 269.084
21556298.000 4567628.500 -921.178
21556318.000 4567635.500 -910.694
21556344.000 4567645.000 -896.319
21556344.000 4567645.000 -896.278
21556724.000 4568365.500 279.535
21556344.000 4567645.500 -896.171
21557164.000 4568390.000 292.290
21556390.000 4567662.500 -870.914
21556452.000 4567685.000 -837.335
21557296.000 4568398.000 297.189
21556504.000 4567703.500 -809.502
21556518.000 4567708.500 -801.446
21556518.000 4567708.500 -801.438
21557318.000 4568370.000 249.412
21557318.000 4568370.000 249.372
21557318.000 4568370.000 248.997
21556674.000 4567765.500 -716.939
21556998.000 4567884.000 -540.046
21557014.000 4567889.500 -531.969
21557022.000 4567892.500 -527.555
21557022.000 4567892.500 -527.382
21557318.000 4568370.000 248.988
21557068.000 4567909.500 -502.567
21557102.000 4567922.000 -483.685
21557318.000 4568369.000 247.290
21557318.000 4568369.000 247.238
21557350.000 4568326.500 174.649
21557324.000 4568003.000 -362.438
21557356.000 4568318.000 159.779
21557326.000 4568003.500 -361.486
21557330.000 4568005.000 -359.432
21557334.000 4568005.500 -356.860
21557334.000 4568005.500 -356.739
21557362.000 4568305.500 141.401
21557368.000 4568293.000 122.266
21557334.000 4568005.500 -356.735
21557338.000 4568007.000 -354.324
21557368.000 4568293.000 122.227
21557410.000 4568197.000 -20.730
21557338.000 4568007.000 -354.156
21557410.000 4568197.000 -20.884
21557440.000 4568125.000 -128.035
21557426.000 4568025.000 -296.400
21557426.000 4568025.000 -296.262
21557466.000 4568066.000 -216.516
21557466.000 4568065.500 -216.573
21557480.000 4568036.500 -260.236
21555616.000 4568303.500 254.307
21555030.000 4568267.500 243.062
21554760.000 4568257.500 249.556
21554558.000 4568255.500 262.828
21554346.000 4568152.500 277.077
21554294.000 4568126.500 279.827
21552834.000 4567343.500 244.778
21553246.000 4567576.000 274.740
21552576.000 4567194.000 219.759
21552550.000 4567179.000 216.882
21553106.000 4567501.000 271.089
21553988.000 4567976.000 295.553
21553934.000 4567949.500 298.795
21552528.000 4567166.500 214.650
21552520.000 4567161.500 214.218
21551968.000 4566932.000 182.686
21551652.000 4566807.000 177.050
21551040.000 4566559.000 152.664
21550922.000 4566512.000 150.446
21550666.000 4566412.000 146.307
21550282.000 4566264.500 145.481
21550064.000 4566176.000 137.749
21549640.000 4566017.000 143.315
21549018.000 4565799.500 178.087
21548932.000 4565767.500 179.912
21548740.000 4565696.500 184.359
21548828.000 4565730.000 184.646
21547028.000 4565105.500 143.509
21546998.000 4565094.000 139.973
21548738.000 4565702.500 196.162
21548258.000 4565581.000 259.791
21548800.000 4565722.000 188.075
21548820.000 4565728.000 185.489
21547466.000 4565282.500 197.097
21547768.000 4565404.000 234.734
21547606.000 4565343.000 221.543
21546676.000 4564974.500 118.773
21546474.000 4564899.000 104.494
21546140.000 4564784.500 97.056
21545592.000 4564599.500 91.463
21545420.000 4564543.500 92.350
21545130.000 4564447.000 91.644
21545026.000 4564413.000 91.820
21544948.000 4563539.500 -1303.199
21545024.000 4564412.000 91.824
21542958.000 4562783.000 160.542
21542962.000 4562785.500 160.461
21543254.000 4563017.000 152.823
21543272.000 4563031.500 152.256
21543636.000 4563317.000 137.271
21544086.000 4563668.000 114.924
21544178.000 4563741.000 114.147
21544234.000 4563785.500 112.796
21544774.000 4564211.000 94.202
21544832.000 4564258.000 92.512
21542958.000 4562782.500 160.568
21542776.000 4562625.000 162.859
21542832.000 4562674.500 164.266
21542284.000 4562200.000 173.070
21542240.000 4562161.500 173.705
21542042.000 4561988.000 175.068
21541760.000 4561743.500 178.950
21541672.000 4561667.500 178.526
21541382.000 4561412.000 177.748
21541128.000 4561198.500 192.892
21541062.000 4561144.500 198.900
21540500.000 4559817.000 216.935
21540500.000 4559817.000 217.172
21540692.000 4560783.000 245.835
21540500.000 4559817.000 217.173
21540498.000 4559817.000 217.549
21540498.000 4559817.000 217.830
21540626.000 4560483.500 249.702
21540498.000 4559818.000 218.813
21540662.000 4560656.000 254.213
21540498.000 4559818.500 219.897
21540498.000 4559818.500 220.303
21540516.000 4559926.500 232.468
21540498.000 4559818.500 220.297
21540498.000 4559818.500 219.897

POLYGONS 328 1312
3 0 1 2
3 223 222 224
3 160 161 240
3 164 174 173
3 111 110 103
3 147 144 145
3 160 235 234
3 303 302 304
3 113 103 114
3 49 51 48
3 79 14 11
3 305 299 303
3 163 162 160
3 73 69 72
3 257 256 263
3 75 74 13
3 242 238 243
3 91 90 12
3 6 32 33
3 9 286 276
3 9 287 286
3 269 104 270
3 297 298 0
3 97 96 12
3 282 274 281
3 6 17 19
3 145 146 244
3 6 37 38
3 163 160 164
3 122 127 126
3 66 65 15
3 9 295 294
3 259 104 267
3 104 274 273
3 74 76 71
3 69 70 72
3 12 11 9
3 242 236 238
3 9 290 289
3 125 122 126
3 82 81 11
3 24 6 23
3 213 211 212
3 30 31 6
3 104 259 258
3 104 272 271
3 119 116 117
3 125 124 122
3 171 170 164
3 51 52 48
3 104 271 270
3 92 91 12
3 164 233 232
3 236 237 238
3 264 265 261
3 85 82 83
3 283 274 282
3 87 11 12
3 144 132 145
3 252 122 253
3 39 6 38
3 134 132 135
3 216 215 212
3 300 301 299
3 15 47 46
3 12 90 89
3 291 9 292
3 260 258 261
3 266 265 264
3 160 240 239
3 13 16 15
3 146 132 133
3 6 31 32
3 204 203 199
3 104 269 268
3 40 15 41
3 122 256 255
3 220 218 221
3 49 48 15
3 160 234 165
3 26 6 25
3 287 288 286
3 15 43 42
3 164 160 165
3 142 141 132
3 253 122 254
3 225 223 224
3 55 58 57
3 227 228 229
3 219 216 218
3 9 289 287
3 280 274 279
3 0 6 5
3 100 12 9
3 109 108 103
3 158 157 145
3 308 307 309
3 172 164 173
3 122 246 133
3 6 21 22
3 274 277 278
3 205 208 207
3 134 131 132
3 147 145 148
3 80 79 11
3 7 5 6
3 162 159 160
3 179 178 175
3 132 122 133
3 104 118 103
3 272 104 273
3 100 274 99
3 118 117 103
3 274 285 275
3 256 118 104
3 290 9 291
3 122 117 118
3 69 68 13
3 155 145 156
3 285 274 284
3 51 53 52
3 9 294 293
3 160 145 161
3 144 143 132
3 160 237 236
3 53 55 54
3 181 180 182
3 241 238 237
3 214 213 212
3 196 195 193
3 303 299 302
3 247 122 248
3 110 109 103
3 63 62 15
3 12 96 95
3 187 183 188
3 145 132 146
3 116 115 103
3 181 182 183
3 298 300 299
3 16 66 15
3 122 255 254
3 273 274 275
3 129 128 122
3 104 99 274
3 94 93 12
3 299 301 302
3 160 239 237
3 181 179 180
3 178 177 175
3 143 142 132
3 154 153 145
3 112 111 103
3 104 268 267
3 274 280 281
3 69 13 70
3 170 169 164
3 139 132 140
3 24 25 6
3 103 115 114
3 39 7 6
3 6 0 8
3 81 80 11
3 6 15 17
3 197 196 193
3 14 78 13
3 145 157 156
3 15 44 43
3 303 304 306
3 87 86 11
3 228 227 225
3 279 274 278
3 28 6 27
3 256 262 263
3 195 194 193
3 103 106 105
3 164 231 176
3 123 121 122
3 29 6 28
3 86 84 11
3 15 42 41
3 131 122 132
3 9 10 296
3 159 145 160
3 233 164 165
3 6 9 11
3 107 106 103
3 186 185 183
3 137 136 132
3 307 310 309
3 6 19 20
3 101 98 99
3 138 137 132
3 174 164 175
3 163 164 166
3 223 220 222
3 113 112 103
3 185 184 183
3 88 12 89
3 100 99 12
3 256 122 118
3 50 49 15
3 179 175 180
3 295 9 296
3 15 61 60
3 0 4 1
3 145 244 161
3 256 258 260
3 93 92 12
3 153 152 145
3 124 123 122
3 262 256 260
3 122 252 251
3 74 71 13
3 67 16 13
3 98 12 99
3 11 14 13
3 9 8 10
3 258 264 261
3 6 20 21
3 152 151 145
3 6 26 27
3 122 249 248
3 0 5 4
3 13 78 77
3 194 192 193
3 88 87 12
3 64 63 15
3 184 181 183
3 35 36 6
3 6 11 13
3 122 251 250
3 68 67 13
3 34 35 6
3 256 257 255
3 168 167 164
3 189 188 190
3 128 127 122
3 164 176 175
3 3 0 2
3 200 196 199
3 36 37 6
3 226 223 225
3 189 187 188
3 230 227 229
3 245 146 133
3 190 192 191
3 145 149 148
3 56 52 54
3 209 210 207
3 0 298 299
3 203 202 199
3 210 212 211
3 9 6 8
3 18 15 40
3 29 30 6
3 198 196 197
3 216 217 218
3 284 274 283
3 102 103 105
3 75 13 77
3 120 119 117
3 169 168 164
3 82 11 83
3 15 48 47
3 189 190 191
3 220 219 218
3 55 57 54
3 205 207 206
3 102 99 103
3 139 138 132
3 192 190 193
3 256 104 258
3 208 209 207
3 274 100 276
3 121 117 122
3 172 171 164
3 62 61 15
3 71 70 13
3 9 293 292
3 231 164 232
3 94 12 95
3 227 226 225
3 18 17 15
3 215 214 212
3 117 116 103
3 11 84 83
3 202 201 199
3 235 160 236
3 131 130 122
3 64 15 65
3 201 200 199
3 15 45 44
3 211 207 210
3 151 150 145
3 59 15 60
3 6 22 23
3 34 6 33
3 246 122 247
3 164 167 166
3 108 107 103
3 102 101 99
3 3 297 0
3 277 274 276
3 205 204 199
3 308 303 307
3 155 154 145
3 132 141 140
3 98 97 12
3 52 53 54
3 204 205 206
3 15 46 45
3 100 9 276
3 187 186 183
3 249 122 250
3 130 129 122
3 222 220 221
3 177 174 175
3 196 198 199
3 159 158 145
3 150 149 145
3 307 303 306
3 15 6 13
3 216 212 217
3 132 136 135
3 59 50 15
3 121 120 117
3 103 99 104

POINT_DATA 311
COLOR_SCALARS GocadColor 4
1 0 0 0.5
1 0 0 0.5
1 0 0 0.5
1 0 0 0.5
1 0 0 0.5
1 0 0 0.5
1 0 0 0.5
1 0 0 0.5
1 0 0 0.5
1 0 0 0.5
1 0 0 0.5
1 0 0 0.5
1 0 0 0.5
1 0 0 0.5
1 0 0 0.5
1 0 0 0.5
1 0 0 0.5
1 0 0 0.5
1 0 0 0.5
1 0 0 0.5
1 0 0 0.5
1 0 0 0.5
1 0 0 0.5
1 0 0 0.5
1 0 0 0.5
1 0 0 0.5
1 0 0 0.5
1 0 0 0.5
1 0 0 0.5
1 0 0 0.5
1 0 0 0.5
1 0 0 0.5
1 0 0 0.5
1 0 0 0.5
1 0 0 0.5
1 0 0 0.5
1 0 0 0.5
1 0 0 0.5
1 0 0 0.5
1 0 0 0.5
1 0 0 0.5
1 0 0 0.5
1 0 0 0.5
1 0 0 0.5
1 0 0 0.5
1 0 0 0.5
1 0 0 0.5
1 0 0 0.5
1 0 0 0.5
1 0 0 0.5
1 0 0 0.5
1 0 0 0.5
1 0 0 0.5
1 0 0 0.5
1 0 0 0.5
1 0 0 0.5
1 0 0 0.5
1 0 0 0.5
1 0 0 0.5
1 0 0 0.5
1 0 0 0.5
1 0 0 0.5
1 0 0 0.5
1 0 0 0.5
1 0 0 0.5
1 0 0 0.5
1 0 0 0.5
1 0 0 0.5
1 0 0 0.5
1 0 0 0.5
1 0 0 0.5
1 0 0 0.5
1 0 0 0.5
1 0 0 0.5
1 0 0 0.5
1 0 0 0.5
1 0 0 0.5
1 0 0 0.5
1 0 0 0.5
1 0 0 0.5
1 0 0 0.5
1 0 0 0.5
1 0 0 0.5
1 0 0 0.5
1 0 0 0.5
1 0 0 0.5
1 0 0 0.5
1 0 0 0.5
1 0 0 0.5
1 0 0 0.5
1 0 0 0.5
1 0 0 0.5
1 0 0 0.5
1 0 0 0.5
1 0 0 0.5
1 0 0 0.5
1 0 0 0.5
1 0 0 0.5
1 0 0 0.5
1 0 0 0.5
1 0 0 0.5
1 0 0 0.5
1 0 0 0.5
1 0 0 0.5
1 0 0 0.5
1 0 0 0.5
1 0 0 0.5
1 0 0 0.5
1 0 0 0.5
1 0 0 0.5
1 0 0 0.5
1 0 0 0.5
1 0 0 0.5
1 0 0 0.5
1 0 0 0.5
1 0 0 0.5
1 0 0 0.5
1 0 0 0.5
1 0 0 0.5
1 0 0 0.5
1 0 0 0.5
1 0 0 0.5
1 0 0 0.5
1 0 0 0.5
1 0 0 0.5
1 0 0 0.5
1 0 0 0.5
1 0 0 0.5
1 0 0 0.5
1 0 0 0.5
1 0 0 0.5
1 0 0 0.5
1 0 0 0.5
1 0 0 0.5
1 0 0 0.5
1 0 0 0.5
1 0 0 0.5
1 0 0 0.5
1 0 0 0.5
1 0 0 0.5
1 0 0 0.5
1 0 0 0.5
1 0 0 0.5
1 0 0 0.5
1 0 0 0.5
1 0 0 0.5
1 0 0 0.5
1 0 0 0.5
1 0 0 0.5
1 0 0 0.5
1 0 0 0.5
1 0 0 0.5
1 0 0 0.5
1 0 0 0.5
1 0 0 0.5
1 0 0 0.5
1 0 0 0.5
1 0 0 0.5
1 0 0 0.5
1 0 0 0.5
1 0 0 0.5
1 0 0 0.5
1 0 0 0.5
1 0 0 0.5
1 0 0 0.5
1 0 0 0.5
1 0 0 0.5
1 0 0 0.5
1 0 0 0.5
1 0 0 0.5
1 0 0 0.5
1 0 0 0.5
1 0 0 0.5
1 0 0 0.5
1 0 0 0.5
1 0 0 0.5
1 0 0 0.5
1 0 0 0.5
1 0 0 0.5
1 0 0 0.5
1 0 0 0.5
1 0 0 0.5
1 0 0 0.5
1 0 0 0.5
1 0 0 0.5
1 0 0 0.5
1 0 0 0.5
1 0 0 0.5
1 0 0 0.5
1 0 0 0.5
1 0 0 0.5
1 0 0 0.5
1 0 0 0.5
1 0 0 0.5
1 0 0 0.5
1 0 0 0.5
1 0 0 0.5
1 0 0 0.5
1 0 0 0.5
1 0 0 0.5
1 0 0 0.5
1 0 0 0.5
1 0 0 0.5
1 0 0 0.5
1 0 0 0.5
1 0 0 0.5
1 0 0 0.5
1 0 0 0.5
1 0 0 0.5
1 0 0 0.5
1 0 0 0.5
1 0 0 0.5
1 0 0 0.5
1 0 0 0.5
1 0 0 0.5
1 0 0 0.5
1 0 0 0.5
1 0 0 0.5
1 0 0 0.5
1 0 0 0.5
1 0 0 0.5
1 0 0 0.5
1 0 0 0.5
1 0 0 0.5
1 0 0 0.5
1 0 0 0.5
1 0 0 0.5
1 0 0 0.5
1 0 0 0.5
1 0 0 0.5
1 0 0 0.5
1 0 0 0.5
1 0 0 0.5
1 0 0 0.5
1 0 0 0.5
1 0 0 0.5
1 0 0 0.5
1 0 0 0.5
1 0 0 0.5
1 0 0 0.5
1 0 0 0.5
1 0 0 0.5
1 0 0 0.5
1 0 0 0.5
1 0 0 0.5
1 0 0 0.5
1 0 0 0.5
1 0 0 0.5
1 0 0 0.5
1 0 0 0.5
1 0 0 0.5
1 0 0 0.5
1 0 0 0.5
1 0 0 0.5
1 0 0 0.5
1 0 0 0.5
1 0 0 0.5
1 0 0 0.5
1 0 0 0.5
1 0 0 0.5
1 0 0 0.5
1 0 0 0.5
1 0 0 0.5
1 0 0 0.5
1 0 0 0.5
1 0 0 0.5
1 0 0 0.5
1 0 0 0.5
1 0 0 0.5
1 0 0 0.5
1 0 0 0.5
1 0 0 0.5
1 0 0 0.5
1 0 0 0.5
1 0 0 0.5
1 0 0 0.5
1 0 0 0.5
1 0 0 0.5
1 0 0 0.5
1 0 0 0.5
1 0 0 0.5
1 0 0 0.5
1 0 0 0.5
1 0 0 0.5
1 0 0 0.5
1 0 0 0.5
1 0 0 0.5
1 0 0 0.5
1 0 0 0.5
1 0 0 0.5
1 0 0 0.5
1 0 0 0.5
1 0 0 0.5
1 0 0 0.5
1 0 0 0.5
1 0 0 0.5
1 0 0 0.5
1 0 0 0.5
1 0 0 0.5
1 0 0 0.5
1 0 0 0.5
1 0 0 0.5
1 0 0 0.5
1 0 0 0.5
1 0 0 0.5
1 0 0 0.5
1 0 0 0.5
1 0 0 0.5
1 0 0 0.5
1 0 0 0.5
1 0 0 0.5

