# vtk DataFile Version 3.0
Gocad TSurf to VTK
ASCII
DATASET POLYDATA
POINTS 399 float
21588285.844 4546922.609 -2314.600
21588329.484 4546841.094 -2316.777
21587630.555 4546474.688 -972.716
21587751.695 4546274.602 -979.825
21588209.898 4547048.164 -2309.702
21589008.539 4547233.188 -3659.069
21589106.625 4547013.938 -3659.942
21588935.453 4547389.266 -3656.756
21589639.172 4547731.234 -5000.000
21588893.125 4547471.367 -3654.851
21589806.914 4547329.969 -5000.000
21589345.430 4546601.484 -3663.059
21590153.328 4546774.922 -5000.000
21588538.203 4546444.398 -2324.058
21588855.391 4545808.352 -2325.359
21587945.070 4545912.734 -989.175
21587239.289 4545609.977 351.884
21587977.258 4545857.250 -989.558
21587257.336 4545543.047 347.256
21588004.531 4545764.969 -989.170
21588021.906 4545713.813 -988.976
21588033.961 4545679.039 -988.847
21588056.156 4545616.656 -988.621
21588084.617 4545541.000 -988.363
21588116.938 4545451.016 -988.039
21587378.484 4545093.672 349.281
21588163.117 4545386.008 -988.039
21588165.695 4545376.820 -988.039
21588949.047 4545673.750 -2325.359
21588968.500 4545571.766 -2324.361
21589593.836 4546165.688 -3662.680
21589562.055 4546223.766 -3662.777
21589744.148 4545923.922 -3662.533
21589749.203 4545894.414 -3662.180
21589732.391 4545970.680 -3662.680
21590529.898 4546217.070 -5000.000
21590517.023 4546263.016 -5000.000
21589547.781 4546246.836 -3662.799
21589517.938 4546297.734 -3662.863
21589503.016 4546323.188 -3662.895
21589817.625 4545773.375 -3661.827
21589029.852 4545423.906 -2323.420
21589840.859 4545730.570 -3661.680
21589056.594 4545366.781 -2323.126
21589863.672 4545690.227 -3661.563
21589888.586 4545637.578 -3661.299
21589919.000 4545589.953 -3661.240
21589865.773 4545677.930 -3661.416
21589075.734 4545316.922 -2322.774
21589078.250 4545302.172 -2322.598
21588236.172 4545090.383 -985.131
21588255.828 4545006.445 -984.249
21588221.258 4545134.141 -985.483
21588202.852 4545210.703 -986.276
21588198.625 4545216.797 -986.276
21588189.211 4545247.078 -986.541
21587466.016 4544582.172 355.564
21588296.773 4544897.328 -983.327
21588308.047 4544881.063 -983.327
21589163.563 4545138.234 -2320.441
21588334.609 4544781.602 -978.442
21589919.844 4545585.031 -3661.181
21589993.359 4545471.461 -3660.665
21590016.164 4545431.109 -3660.073
21590044.047 4545379.742 -3659.184
21590045.305 4545372.367 -3658.741
21589321.891 4544802.922 -2312.091
21590085.016 4545307.609 -3658.148
21590086.281 4545300.234 -3657.704
21590170.969 4545175.820 -3657.539
21590183.813 4545155.117 -3657.373
21590196.969 4545129.570 -3656.875
21591329.203 4545061.742 -5000.000
21590227.508 4545072.383 -3655.880
21590244.734 4545043.164 -3655.548
21590227.820 4545067.547 -3655.548
21589334.406 4544767.313 -2310.764
21590262.898 4544999.430 -3654.221
21589378.891 4544672.484 -2308.442
21590309.703 4544925.016 -3653.701
21589426.406 4544588.203 -2307.402
21588478.508 4544344.969 -961.104
21590376.641 4544827.125 -3653.701
21589450.313 4544530.391 -2306.364
21588484.898 4544319.484 -960.065
21590415.438 4544748.648 -3653.182
21590419.406 4544729.922 -3652.316
21590535.625 4544499.391 -3651.557
21591539.320 4544673.789 -5000.000
21590603.375 4544274.086 -3651.557
21589578.469 4544170.078 -2303.114
21591643.586 4544316.531 -5000.000
21591645.734 4544140.313 -5000.000
21590618.508 4544018.195 -3648.218
21590673.250 4543765.992 -3647.911
21589590.156 4543925.859 -2297.663
21589628.156 4543718.016 -2295.822
21588554.797 4544019.664 -954.671
21588574.000 4543713.297 -943.734
21588554.258 4544063.719 -954.671
21587524.523 4543976.188 393.773
21589534.258 4544320.680 -2303.114
21588540.445 4544110.781 -954.671
21590423.563 4544706.297 -3651.557
21589459.547 4544458.617 -2303.114
21588490.031 4544241.625 -955.579
21588492.031 4544217.406 -954.671
21588435.664 4544430.883 -962.662
21587504.727 4544355.930 369.183
21588428.156 4544468.039 -964.653
21588419.242 4544507.234 -966.644
21588368.063 4544666.633 -973.113
21588346.398 4544731.234 -975.777
21588315.766 4544842.133 -981.106
21588583.102 4543674.969 -943.734
21587564.813 4543059.867 430.933
21589630.016 4543466.031 -2292.142
21588610.594 4543050.398 -928.388
21589645.500 4543196.500 -2285.592
21588790.875 4542606.500 -957.059
21589659.797 4543155.336 -2288.048
21590677.867 4543379.063 -3642.175
21589687.719 4543082.742 -2292.606
21591715.328 4543488.695 -5000.000
21590732.398 4543212.703 -3651.121
21591718.344 4543813.969 -5000.000
21589749.469 4542936.719 -2302.242
21590830.602 4543052.125 -3669.679
21589968.969 4542583.055 -2343.686
21590848.875 4543009.859 -3672.384
21590860.875 4542959.875 -3673.140
21591788.688 4543069.258 -5000.000
21590910.156 4542703.016 -3673.646
21590933.250 4542670.516 -3672.949
21590002.820 4542476.578 -2347.028
21589160.641 4542155.000 -1110.739
21590031.625 4542336.773 -2347.292
21590077.813 4542271.766 -2345.898
21589479.227 4542155.000 -1528.167
21589361.625 4542155.000 -1364.787
21589576.133 4542155.000 -1664.050
21589842.172 4542155.000 -1978.961
21589933.648 4542155.000 -2083.599
21590113.953 4542155.000 -2302.195
21590139.078 4542170.570 -2344.329
21590145.016 4542155.000 -2344.253
21590150.859 4542155.000 -2352.115
21591076.422 4542297.500 -3671.555
21591004.250 4542514.484 -3671.860
21590735.695 4542155.000 -3139.167
21590820.633 4542155.000 -3242.217
21590949.563 4542155.000 -3404.933
21591115.797 4542229.672 -3670.549
21591987.336 4542470.547 -5000.000
21590988.344 4542155.000 -3453.878
21591068.000 4542155.000 -3555.927
21591137.359 4542191.227 -3670.686
21591149.664 4542155.000 -3670.708
21591294.258 4542155.000 -3874.167
21591377.602 4542155.000 -4000.000
21591388.273 4542155.000 -4016.118
21592012.844 4542317.422 -5000.000
21591465.203 4542155.000 -4127.675
21591621.883 4542155.000 -4367.063
21591762.289 4542155.000 -4552.326
21592073.633 4542155.000 -5000.000
21590950.563 4542646.141 -3672.426
21589143.539 4542155.000 -1088.168
21589115.852 4542155.000 -1055.041
21589078.188 4542155.000 -1012.231
21589043.828 4542203.367 -1005.790
21589067.672 4542155.000 -1000.000
21588980.391 4542155.000 -898.487
21588945.813 4542155.000 -858.405
21588451.180 4542155.000 -267.961
21587915.023 4542155.000 371.760
21587821.320 4542304.031 389.891
21587756.422 4542448.656 399.747
21587579.852 4542885.500 427.891
21587094.023 4545877.805 361.990
21587471.656 4546696.070 -959.655
21586674.445 4546424.023 395.816
21588115.313 4547176.125 -2301.022
21588074.984 4547243.453 -2296.741
21587339.414 4546892.656 -946.717
21588805.500 4547602.680 -3646.230
21588000.984 4547409.906 -2289.250
21588845.836 4547535.352 -3650.511
21589576.359 4547894.570 -5000.000
21588776.766 4547772.789 -3644.219
21587995.406 4547457.867 -2288.982
21588768.063 4547812.461 -3643.541
21587950.008 4547598.656 -2284.910
21588751.297 4547916.773 -3642.455
21589552.586 4548234.891 -5000.000
21588727.313 4547954.570 -3640.173
21587902.047 4547674.250 -2280.345
21588713.281 4548060.719 -3639.615
21587883.813 4547759.016 -2279.540
21588699.609 4548124.289 -3638.895
21588710.617 4548064.922 -3639.455
21588692.305 4548184.813 -3638.575
21587841.406 4547886.547 -2277.151
21588641.922 4548348.625 -3635.825
21588653.000 4548276.266 -3636.329
21588637.039 4548379.953 -3635.601
21587712.883 4548261.977 -2270.082
21588634.172 4548406.789 -3635.489
21588629.000 4548445.563 -3635.265
21588617.094 4548539.617 -3634.761
21587693.000 4548346.570 -2269.075
21588609.344 4548597.234 -3634.425
21589520.055 4549093.867 -5000.000
21588570.828 4548822.336 -3632.671
21588592.016 4548638.148 -3633.484
21588561.359 4548894.875 -3632.286
21587602.656 4548695.875 -2264.573
21588546.313 4548936.977 -3632.893
21588510.492 4549240.047 -3635.114
21587565.328 4548813.500 -2267.025
21589501.359 4549375.602 -5000.000
21588439.578 4549632.063 -3635.673
21589373.328 4550112.797 -5000.000
21587487.531 4549280.820 -2270.508
21587471.844 4549316.547 -2271.906
21586534.227 4548936.953 -905.342
21587424.875 4549477.086 -2273.583
21586473.930 4549081.234 -909.955
21588379.766 4549866.648 -3636.792
21587373.938 4549599.133 -2276.938
21587345.578 4549704.305 -2276.938
21586398.727 4549251.469 -915.407
21588288.922 4550163.625 -3638.469
21587272.953 4549838.219 -2276.938
21589241.867 4550600.414 -5000.000
21589103.398 4550860.523 -5000.000
21588684.531 4551407.188 -5000.000
21587658.828 4551101.547 -3648.483
21586990.875 4550229.734 -2286.444
21588288.813 4552054.813 -5000.000
21587277.992 4551699.375 -3642.999
21586605.117 4550822.930 -2291.567
21588038.344 4552449.594 -5000.000
21587113.406 4551913.844 -3621.129
21586342.625 4551172.031 -2262.719
21586872.469 4552367.719 -3615.724
21586072.813 4551526.656 -2228.345
21587788.875 4553007.844 -5000.000
21586663.078 4552924.563 -3615.724
21585737.320 4552268.594 -2231.447
21587573.023 4553605.688 -5000.000
21586361.203 4553401.844 -3615.724
21585545.883 4552569.609 -2231.447
21587170.523 4554242.078 -5000.000
21586217.344 4553593.672 -3615.724
21585449.977 4552697.500 -2231.447
21586978.711 4554497.844 -5000.000
21585934.148 4553894.016 -3615.724
21585149.297 4553009.063 -2231.447
21586710.320 4554784.969 -5000.000
21585764.789 4554060.188 -3615.724
21586375.313 4555119.875 -5000.000
21584928.820 4553383.188 -2231.447
21584431.023 4552132.172 -847.170
21585436.953 4554624.734 -3615.724
21584827.484 4553429.938 -2231.447
21585938.195 4555872.594 -5000.000
21585281.227 4554701.266 -3615.724
21585906.789 4555893.344 -5000.000
21585011.375 4554542.531 -3615.724
21585268.008 4554707.359 -3615.724
21584656.164 4553324.766 -2231.447
21584378.156 4552156.563 -847.170
21584673.383 4554207.875 -3615.724
21584920.102 4555316.781 -5000.000
21584430.016 4553102.625 -2231.447
21584311.391 4552113.688 -847.170
21583860.313 4553317.875 -3615.724
21583849.383 4554144.797 -5000.000
21583894.656 4552516.641 -2231.447
21584230.945 4552040.656 -847.170
21583510.953 4552857.531 -3615.724
21583370.195 4553516.328 -5000.000
21583844.867 4552455.188 -2231.447
21584007.594 4551801.625 -847.170
21583654.688 4552202.688 -2231.447
21583159.406 4552096.203 -3615.724
21583793.953 4551541.922 -847.170
21583933.227 4550881.156 537.107
21583417.344 4551691.188 -2231.447
21583676.328 4551288.438 -847.170
21583655.461 4551295.313 -845.320
21583653.367 4551290.781 -845.320
21583404.125 4551697.281 -2230.214
21583399.938 4551688.219 -2230.214
21583146.516 4552085.656 -3615.107
21583599.453 4551312.906 -840.388
21583596.313 4551306.109 -840.388
21583362.609 4551699.953 -2226.925
21583347.734 4551679.313 -2226.514
21583107.859 4552054.016 -3613.257
21583587.609 4551304.625 -839.771
21583561.180 4551316.813 -837.305
21583712.938 4550982.766 557.660
21583505.172 4551334.406 -832.372
21583323.836 4551673.844 -2224.870
21583236.641 4551167.406 -782.607
21583363.711 4550756.039 623.190
21583102.523 4551571.813 -2186.879
21582933.391 4551404.594 -2157.943
21583275.836 4551686.781 -2219.609
21582978.977 4551986.656 -3593.440
21583293.000 4551688.078 -2221.992
21583089.633 4552037.688 -3612.435
21583334.516 4551685.406 -2225.281
21583074.211 4552044.797 -3610.996
21582855.430 4552401.516 -5000.000
21582786.242 4551787.141 -3566.855
21582574.758 4551550.547 -3567.096
21582717.055 4551172.750 -2133.711
21582480.984 4551423.422 -3579.052
21582294.078 4550699.578 -2134.193
21580855.430 4547401.516 631.050
21582106.531 4550445.328 -2158.105
21581738.359 4549480.828 -735.576
21582095.875 4549953.477 -687.529
21580980.984 4547673.422 630.282
21581181.867 4548108.469 639.501
21581366.008 4548507.266 685.899
21581744.617 4549013.422 733.715
21581842.695 4549137.461 749.962
21582110.289 4549430.977 786.358
21582256.438 4550129.586 -665.691
21582969.078 4550365.891 688.658
21582898.914 4550832.484 -729.017
21582395.891 4550820.852 -2118.650
21583194.586 4550588.836 659.802
21583067.508 4551000.203 -747.138
21582502.930 4550938.258 -2108.977
21583127.961 4552085.969 -3613.668
21583152.797 4552099.250 -3615.107
21583132.367 4552083.938 -3614.079
21584511.461 4551996.438 -847.170
21584739.555 4551725.375 -847.170
21584803.672 4551625.203 -847.170
21585888.672 4551881.188 -2231.447
21585187.820 4550885.164 -835.369
21584107.078 4550581.773 539.508
21586131.953 4551423.797 -2222.865
21585277.227 4550731.203 -850.659
21586176.664 4551346.813 -2231.910
21586228.938 4551288.156 -2242.258
21585445.023 4550563.797 -881.707
21586313.617 4551205.063 -2257.685
21585643.539 4550344.094 -916.729
21585724.781 4550255.422 -930.885
21584978.711 4549497.844 419.289
21586769.258 4550568.672 -2296.967
21586362.414 4549318.422 -915.407
21585188.508 4549218.102 418.167
21586412.906 4549198.883 -915.407
21585578.289 4548597.289 459.544
21586485.305 4549038.141 -909.955
21586490.938 4549022.008 -909.536
21586598.734 4548625.641 -898.677
21585661.859 4548363.383 472.052
21586716.484 4548239.109 -900.451
21587650.578 4548456.563 -2266.796
21585778.852 4548035.906 466.065
21586043.672 4547441.203 451.454
21586815.570 4547973.414 -905.795
21586827.898 4547941.484 -906.467
21587713.625 4548242.359 -2270.082
21588653.281 4548268.828 -3636.329
21587788.750 4547970.836 -2274.001
21588661.938 4548235.953 -3636.776
21586998.688 4547570.719 -916.206
21587850.336 4547849.125 -2277.631
21586911.523 4547714.719 -911.001
21587002.961 4547556.969 -916.446
21586874.922 4547800.609 -908.986
21586852.922 4547867.672 -907.810
21586246.180 4547122.016 439.577
21587072.500 4547407.680 -920.317
21586472.750 4546760.672 417.219
21587858.703 4547826.594 -2278.110
21587884.563 4547739.156 -2279.540
21587165.391 4547245.617 -928.994
21587182.055 4547210.688 -930.623
21587212.406 4547132.563 -933.474
21587247.805 4547056.297 -937.086
21587271.344 4547006.281 -939.493
21585050.641 4549401.930 406.066
21584594.070 4549905.219 491.057
21584370.344 4550128.422 532.454
21584280.938 4550282.391 554.813
21583750.563 4554021.313 -5000.000
21585370.758 4555763.000 -5000.000
21585712.938 4555982.766 -5000.000

POLYGONS 690 2760
3 93 96 95
3 103 101 104
3 258 254 255
3 174 119 170
3 126 170 119
3 183 182 180
3 191 189 192
3 374 378 380
3 131 153 148
3 364 365 361
3 65 66 59
3 205 203 206
3 336 334 337
3 246 351 350
3 228 222 221
3 284 285 283
3 90 95 97
3 245 243 246
3 277 282 396
3 29 41 53
3 290 289 287
3 360 227 361
3 99 90 97
3 43 47 48
3 83 85 86
3 19 20 18
3 303 292 290
3 51 57 56
3 256 253 254
3 297 301 299
3 35 69 67
3 172 173 170
3 290 292 291
3 319 318 317
3 11 14 13
3 35 72 70
3 94 96 93
3 263 258 342
3 121 124 126
3 199 385 377
3 246 350 348
3 353 244 354
3 252 249 343
3 383 387 384
3 114 96 116
3 272 271 265
3 217 215 216
3 281 282 277
3 294 295 293
3 236 235 232
3 192 388 387
3 10 12 11
3 273 278 274
3 72 85 82
3 133 166 148
3 22 14 23
3 304 310 312
3 149 146 147
3 281 340 316
3 44 47 43
3 183 180 184
3 377 383 379
3 169 171 170
3 292 297 296
3 62 63 59
3 186 389 388
3 189 190 192
3 291 293 289
3 118 120 119
3 196 192 387
3 242 240 243
3 230 228 229
3 208 206 210
3 216 213 367
3 49 59 58
3 81 84 105
3 211 209 210
3 331 325 332
3 39 38 14
3 390 389 186
3 275 271 276
3 187 9 4
3 241 237 357
3 115 117 178
3 132 134 128
3 288 290 287
3 107 105 108
3 350 351 352
3 224 225 362
3 267 270 268
3 168 169 126
3 53 41 52
3 375 201 202
3 75 77 78
3 384 389 390
3 303 297 292
3 288 272 263
3 38 37 14
3 113 60 56
3 159 158 153
3 376 377 379
3 219 216 364
3 35 42 40
3 293 340 286
3 269 397 270
3 373 204 375
3 52 50 25
3 224 223 225
3 327 324 328
3 263 342 288
3 244 240 241
3 145 143 144
3 247 242 245
3 0 5 1
3 339 316 340
3 387 388 384
3 104 102 106
3 117 119 176
3 21 14 22
3 35 46 45
3 349 352 393
3 35 40 33
3 89 93 90
3 155 154 152
3 105 106 108
3 72 88 87
3 164 163 161
3 255 251 252
3 30 28 14
3 245 345 249
3 163 162 161
3 318 316 317
3 314 313 300
3 139 135 134
3 128 167 126
3 325 321 332
3 138 139 134
3 73 75 66
3 63 65 59
3 166 131 148
3 112 111 56
3 306 303 307
3 199 197 200
3 312 311 315
3 116 120 118
3 92 125 94
3 262 258 263
3 380 378 369
3 88 91 89
3 137 142 136
3 288 276 272
3 309 317 308
3 192 190 186
3 207 194 205
3 105 104 106
3 254 251 255
3 332 321 335
3 8 10 5
3 281 286 340
3 211 214 213
3 253 251 254
3 211 194 209
3 314 299 302
3 386 196 383
3 64 35 67
3 280 279 275
3 336 337 307
3 157 155 156
3 218 221 220
3 108 106 100
3 271 269 265
3 43 48 49
3 322 324 326
3 206 203 372
3 63 35 64
3 49 57 51
3 257 256 254
3 148 147 144
3 127 129 130
3 349 393 394
3 2 3 179
3 303 302 301
3 94 123 121
3 144 143 137
3 366 369 368
3 171 172 170
3 161 160 153
3 221 223 224
3 7 0 4
3 321 320 318
3 71 72 73
3 319 317 309
3 230 229 231
3 76 78 81
3 264 260 262
3 308 304 306
3 12 36 34
3 367 210 370
3 374 202 376
3 283 285 281
3 291 289 290
3 373 375 374
3 49 48 45
3 10 6 5
3 345 344 249
3 204 373 203
3 35 44 42
3 381 380 369
3 218 219 223
3 225 364 361
3 280 275 276
3 358 233 231
3 67 69 68
3 123 131 129
3 337 319 309
3 334 335 338
3 123 124 121
3 345 245 246
3 125 123 94
3 378 382 369
3 294 292 296
3 55 54 25
3 291 294 293
3 70 71 69
3 116 117 114
3 346 394 395
3 56 111 108
3 184 180 181
3 311 316 315
3 28 29 26
3 390 181 384
3 13 17 15
3 13 14 17
3 37 31 14
3 303 304 302
3 228 232 222
3 59 66 111
3 346 348 349
3 325 323 321
3 56 58 113
3 257 260 259
3 30 32 28
3 85 87 86
3 238 358 355
3 294 298 295
3 16 15 18
3 362 363 361
3 20 21 18
3 38 12 37
3 208 194 207
3 358 231 360
3 205 194 203
3 117 177 178
3 112 59 111
3 265 269 267
3 213 214 367
3 30 34 32
3 386 195 196
3 41 40 43
3 202 201 199
3 79 77 74
3 355 392 356
3 304 312 305
3 279 277 275
3 189 188 185
3 243 353 351
3 214 211 210
3 350 352 349
3 86 87 103
3 186 391 390
3 185 182 183
3 24 26 25
3 342 343 288
3 194 193 195
3 146 145 144
3 203 373 372
3 37 12 31
3 127 130 128
3 190 185 186
3 79 80 78
3 97 98 100
3 26 29 27
3 82 80 79
3 363 225 361
3 107 81 105
3 186 184 391
3 367 370 366
3 229 227 360
3 74 77 75
3 132 133 137
3 271 273 269
3 12 34 30
3 198 195 386
3 252 248 249
3 270 398 268
3 343 249 344
3 362 225 363
3 111 66 110
3 55 53 54
3 209 208 210
3 306 337 309
3 285 286 281
3 25 51 56
3 345 346 344
3 199 194 197
3 284 279 280
3 89 92 93
3 269 274 397
3 232 228 230
3 58 59 60
3 110 109 108
3 121 122 120
3 379 383 382
3 378 379 382
3 101 90 99
3 73 74 75
3 109 81 107
3 66 76 110
3 133 148 144
3 320 316 318
3 355 358 359
3 201 204 203
3 69 71 66
3 187 4 182
3 359 358 361
3 243 240 244
3 255 252 342
3 185 183 186
3 213 212 211
3 229 226 227
3 372 381 371
3 191 193 188
3 23 14 24
3 134 135 128
3 49 58 57
3 143 142 137
3 60 112 56
3 7 5 0
3 1 6 13
3 86 103 83
3 299 301 302
3 207 205 206
3 193 191 192
3 72 82 79
3 182 4 2
3 130 131 132
3 133 144 137
3 390 391 181
3 43 49 50
3 4 0 2
3 232 233 238
3 240 242 239
3 298 341 295
3 244 241 355
3 237 238 357
3 88 89 87
3 257 254 258
3 22 23 18
3 71 73 66
3 120 122 119
3 67 68 65
3 383 384 382
3 19 14 20
3 228 226 229
3 180 182 2
3 235 234 232
3 96 94 116
3 98 114 100
3 212 194 211
3 40 42 43
3 262 260 258
3 299 300 298
3 158 157 153
3 54 52 25
3 94 121 116
3 300 299 314
3 250 247 248
3 15 17 18
3 124 127 128
3 189 185 190
3 308 311 310
3 154 151 152
3 153 157 156
3 251 248 252
3 288 287 284
3 140 138 136
3 116 118 117
3 114 117 115
3 3 16 179
3 101 99 102
3 57 58 56
3 131 166 133
3 51 50 49
3 44 35 45
3 243 351 246
3 167 168 126
3 240 239 237
3 29 55 27
3 82 83 80
3 70 72 71
3 130 132 128
3 251 250 248
3 142 141 136
3 288 284 280
3 314 305 313
3 87 89 90
3 80 83 84
3 241 357 355
3 283 281 279
3 293 295 340
3 173 174 170
3 345 246 346
3 375 202 374
3 204 201 375
3 233 232 230
3 160 159 153
3 328 324 329
3 262 265 264
3 82 85 83
3 259 256 257
3 191 188 189
3 329 324 330
3 17 14 19
3 81 80 84
3 1 13 3
3 32 33 28
3 300 339 298
3 321 318 335
3 330 324 325
3 213 216 215
3 275 277 273
3 343 344 288
3 209 194 208
3 304 308 310
3 20 14 21
3 212 213 215
3 131 133 132
3 26 27 25
3 46 61 45
3 76 81 110
3 288 280 276
3 156 155 152
3 55 29 53
3 162 160 161
3 109 107 108
3 287 285 284
3 377 385 383
3 113 58 60
3 364 366 368
3 226 228 221
3 217 216 219
3 28 33 29
3 289 286 285
3 23 24 25
3 233 230 231
3 372 380 381
3 8 5 7
3 313 339 300
3 333 334 336
3 46 62 61
3 313 316 339
3 326 324 327
3 394 346 349
3 243 244 353
3 34 36 35
3 153 156 152
3 152 151 147
3 322 320 323
3 65 68 66
3 263 272 262
3 118 119 117
3 330 325 331
3 307 337 306
3 302 305 314
3 195 193 192
3 342 252 343
3 72 79 74
3 347 346 395
3 90 93 95
3 151 150 147
3 332 333 331
3 277 278 273
3 346 347 288
3 103 87 101
3 267 268 266
3 95 114 98
3 123 129 127
3 45 59 49
3 202 199 377
3 388 389 384
3 227 224 362
3 239 236 237
3 272 265 262
3 31 30 14
3 18 23 25
3 97 95 98
3 102 99 100
3 6 11 13
3 135 167 128
3 269 270 267
3 247 245 248
3 385 386 383
3 303 301 297
3 284 283 279
3 194 201 203
3 218 212 217
3 289 293 286
3 34 35 32
3 248 245 249
3 358 360 361
3 61 62 59
3 304 303 306
3 214 210 367
3 146 144 147
3 9 7 4
3 356 354 355
3 50 51 25
3 232 234 222
3 83 103 104
3 348 350 349
3 292 294 291
3 226 224 227
3 180 2 179
3 17 19 18
3 273 271 275
3 364 216 366
3 117 176 177
3 296 299 298
3 202 377 376
3 354 356 352
3 75 78 76
3 5 6 1
3 116 121 120
3 60 59 112
3 376 379 378
3 13 15 3
3 237 232 238
3 357 238 355
3 66 75 76
3 14 28 26
3 188 9 187
3 68 69 66
3 99 97 100
3 313 315 316
3 246 348 346
3 312 313 305
3 317 316 311
3 104 101 102
3 77 79 78
3 277 396 278
3 72 87 85
3 14 26 24
3 374 376 378
3 279 281 277
3 334 319 337
3 223 219 225
3 222 220 221
3 225 219 364
3 52 41 50
3 344 346 288
3 195 192 196
3 110 81 109
3 54 53 52
3 21 22 18
3 62 35 63
3 91 92 89
3 269 273 274
3 391 184 181
3 200 197 198
3 295 341 340
3 33 40 41
3 322 316 320
3 180 179 181
3 306 309 308
3 352 356 393
3 240 237 241
3 122 126 119
3 35 70 69
3 276 271 272
3 265 267 264
3 231 229 360
3 298 339 341
3 244 355 354
3 312 315 313
3 132 137 136
3 193 194 188
3 114 115 100
3 341 339 340
3 364 368 365
3 370 371 369
3 6 10 11
3 72 74 73
3 385 199 200
3 174 175 119
3 197 195 198
3 261 260 264
3 83 104 84
3 296 298 294
3 9 188 8
3 210 372 370
3 150 149 147
3 31 12 30
3 11 39 14
3 242 243 245
3 84 104 105
3 288 303 290
3 32 35 33
3 218 217 219
3 302 304 305
3 196 387 383
3 335 318 338
3 366 370 369
3 123 127 124
3 227 362 361
3 121 126 122
3 372 374 380
3 64 65 63
3 78 80 81
3 258 260 257
3 351 353 354
3 323 320 321
3 188 187 185
3 7 9 8
3 322 323 324
3 223 221 218
3 371 381 369
3 45 61 59
3 372 371 370
3 41 43 50
3 216 367 366
3 134 132 136
3 44 43 42
3 0 1 2
3 332 335 334
3 64 67 65
3 238 233 358
3 264 267 266
3 136 138 134
3 192 186 388
3 12 39 11
3 148 153 147
3 220 212 218
3 297 299 296
3 324 323 325
3 266 261 264
3 287 289 285
3 208 207 206
3 35 62 46
3 260 261 259
3 55 25 27
3 2 1 3
3 210 206 372
3 385 198 386
3 351 354 352
3 355 359 392
3 129 131 130
3 198 385 200
3 308 317 311
3 236 232 237
3 175 176 119
3 258 255 342
3 141 140 136
3 111 110 108
3 106 102 100
3 44 45 47
3 87 90 101
3 197 194 195
3 12 38 39
3 334 338 319
3 164 161 165
3 185 187 182
3 212 215 217
3 338 318 319
3 95 96 114
3 281 316 282
3 186 183 184
3 169 170 126
3 270 397 398
3 226 221 224
3 310 311 312
3 124 128 126
3 92 94 93
3 153 152 147
3 373 374 372
3 47 45 48
3 333 332 334
3 3 15 16
3 251 253 250
3 201 194 199
3 29 33 41

POINT_DATA 399
COLOR_SCALARS GocadColor 4
1 0 0 0.5
1 0 0 0.5
1 0 0 0.5
1 0 0 0.5
1 0 0 0.5
1 0 0 0.5
1 0 0 0.5
1 0 0 0.5
1 0 0 0.5
1 0 0 0.5
1 0 0 0.5
1 0 0 0.5
1 0 0 0.5
1 0 0 0.5
1 0 0 0.5
1 0 0 0.5
1 0 0 0.5
1 0 0 0.5
1 0 0 0.5
1 0 0 0.5
1 0 0 0.5
1 0 0 0.5
1 0 0 0.5
1 0 0 0.5
1 0 0 0.5
1 0 0 0.5
1 0 0 0.5
1 0 0 0.5
1 0 0 0.5
1 0 0 0.5
1 0 0 0.5
1 0 0 0.5
1 0 0 0.5
1 0 0 0.5
1 0 0 0.5
1 0 0 0.5
1 0 0 0.5
1 0 0 0.5
1 0 0 0.5
1 0 0 0.5
1 0 0 0.5
1 0 0 0.5
1 0 0 0.5
1 0 0 0.5
1 0 0 0.5
1 0 0 0.5
1 0 0 0.5
1 0 0 0.5
1 0 0 0.5
1 0 0 0.5
1 0 0 0.5
1 0 0 0.5
1 0 0 0.5
1 0 0 0.5
1 0 0 0.5
1 0 0 0.5
1 0 0 0.5
1 0 0 0.5
1 0 0 0.5
1 0 0 0.5
1 0 0 0.5
1 0 0 0.5
1 0 0 0.5
1 0 0 0.5
1 0 0 0.5
1 0 0 0.5
1 0 0 0.5
1 0 0 0.5
1 0 0 0.5
1 0 0 0.5
1 0 0 0.5
1 0 0 0.5
1 0 0 0.5
1 0 0 0.5
1 0 0 0.5
1 0 0 0.5
1 0 0 0.5
1 0 0 0.5
1 0 0 0.5
1 0 0 0.5
1 0 0 0.5
1 0 0 0.5
1 0 0 0.5
1 0 0 0.5
1 0 0 0.5
1 0 0 0.5
1 0 0 0.5
1 0 0 0.5
1 0 0 0.5
1 0 0 0.5
1 0 0 0.5
1 0 0 0.5
1 0 0 0.5
1 0 0 0.5
1 0 0 0.5
1 0 0 0.5
1 0 0 0.5
1 0 0 0.5
1 0 0 0.5
1 0 0 0.5
1 0 0 0.5
1 0 0 0.5
1 0 0 0.5
1 0 0 0.5
1 0 0 0.5
1 0 0 0.5
1 0 0 0.5
1 0 0 0.5
1 0 0 0.5
1 0 0 0.5
1 0 0 0.5
1 0 0 0.5
1 0 0 0.5
1 0 0 0.5
1 0 0 0.5
1 0 0 0.5
1 0 0 0.5
1 0 0 0.5
1 0 0 0.5
1 0 0 0.5
1 0 0 0.5
1 0 0 0.5
1 0 0 0.5
1 0 0 0.5
1 0 0 0.5
1 0 0 0.5
1 0 0 0.5
1 0 0 0.5
1 0 0 0.5
1 0 0 0.5
1 0 0 0.5
1 0 0 0.5
1 0 0 0.5
1 0 0 0.5
1 0 0 0.5
1 0 0 0.5
1 0 0 0.5
1 0 0 0.5
1 0 0 0.5
1 0 0 0.5
1 0 0 0.5
1 0 0 0.5
1 0 0 0.5
1 0 0 0.5
1 0 0 0.5
1 0 0 0.5
1 0 0 0.5
1 0 0 0.5
1 0 0 0.5
1 0 0 0.5
1 0 0 0.5
1 0 0 0.5
1 0 0 0.5
1 0 0 0.5
1 0 0 0.5
1 0 0 0.5
1 0 0 0.5
1 0 0 0.5
1 0 0 0.5
1 0 0 0.5
1 0 0 0.5
1 0 0 0.5
1 0 0 0.5
1 0 0 0.5
1 0 0 0.5
1 0 0 0.5
1 0 0 0.5
1 0 0 0.5
1 0 0 0.5
1 0 0 0.5
1 0 0 0.5
1 0 0 0.5
1 0 0 0.5
1 0 0 0.5
1 0 0 0.5
1 0 0 0.5
1 0 0 0.5
1 0 0 0.5
1 0 0 0.5
1 0 0 0.5
1 0 0 0.5
1 0 0 0.5
1 0 0 0.5
1 0 0 0.5
1 0 0 0.5
1 0 0 0.5
1 0 0 0.5
1 0 0 0.5
1 0 0 0.5
1 0 0 0.5
1 0 0 0.5
1 0 0 0.5
1 0 0 0.5
1 0 0 0.5
1 0 0 0.5
1 0 0 0.5
1 0 0 0.5
1 0 0 0.5
1 0 0 0.5
1 0 0 0.5
1 0 0 0.5
1 0 0 0.5
1 0 0 0.5
1 0 0 0.5
1 0 0 0.5
1 0 0 0.5
1 0 0 0.5
1 0 0 0.5
1 0 0 0.5
1 0 0 0.5
1 0 0 0.5
1 0 0 0.5
1 0 0 0.5
1 0 0 0.5
1 0 0 0.5
1 0 0 0.5
1 0 0 0.5
1 0 0 0.5
1 0 0 0.5
1 0 0 0.5
1 0 0 0.5
1 0 0 0.5
1 0 0 0.5
1 0 0 0.5
1 0 0 0.5
1 0 0 0.5
1 0 0 0.5
1 0 0 0.5
1 0 0 0.5
1 0 0 0.5
1 0 0 0.5
1 0 0 0.5
1 0 0 0.5
1 0 0 0.5
1 0 0 0.5
1 0 0 0.5
1 0 0 0.5
1 0 0 0.5
1 0 0 0.5
1 0 0 0.5
1 0 0 0.5
1 0 0 0.5
1 0 0 0.5
1 0 0 0.5
1 0 0 0.5
1 0 0 0.5
1 0 0 0.5
1 0 0 0.5
1 0 0 0.5
1 0 0 0.5
1 0 0 0.5
1 0 0 0.5
1 0 0 0.5
1 0 0 0.5
1 0 0 0.5
1 0 0 0.5
1 0 0 0.5
1 0 0 0.5
1 0 0 0.5
1 0 0 0.5
1 0 0 0.5
1 0 0 0.5
1 0 0 0.5
1 0 0 0.5
1 0 0 0.5
1 0 0 0.5
1 0 0 0.5
1 0 0 0.5
1 0 0 0.5
1 0 0 0.5
1 0 0 0.5
1 0 0 0.5
1 0 0 0.5
1 0 0 0.5
1 0 0 0.5
1 0 0 0.5
1 0 0 0.5
1 0 0 0.5
1 0 0 0.5
1 0 0 0.5
1 0 0 0.5
1 0 0 0.5
1 0 0 0.5
1 0 0 0.5
1 0 0 0.5
1 0 0 0.5
1 0 0 0.5
1 0 0 0.5
1 0 0 0.5
1 0 0 0.5
1 0 0 0.5
1 0 0 0.5
1 0 0 0.5
1 0 0 0.5
1 0 0 0.5
1 0 0 0.5
1 0 0 0.5
1 0 0 0.5
1 0 0 0.5
1 0 0 0.5
1 0 0 0.5
1 0 0 0.5
1 0 0 0.5
1 0 0 0.5
1 0 0 0.5
1 0 0 0.5
1 0 0 0.5
1 0 0 0.5
1 0 0 0.5
1 0 0 0.5
1 0 0 0.5
1 0 0 0.5
1 0 0 0.5
1 0 0 0.5
1 0 0 0.5
1 0 0 0.5
1 0 0 0.5
1 0 0 0.5
1 0 0 0.5
1 0 0 0.5
1 0 0 0.5
1 0 0 0.5
1 0 0 0.5
1 0 0 0.5
1 0 0 0.5
1 0 0 0.5
1 0 0 0.5
1 0 0 0.5
1 0 0 0.5
1 0 0 0.5
1 0 0 0.5
1 0 0 0.5
1 0 0 0.5
1 0 0 0.5
1 0 0 0.5
1 0 0 0.5
1 0 0 0.5
1 0 0 0.5
1 0 0 0.5
1 0 0 0.5
1 0 0 0.5
1 0 0 0.5
1 0 0 0.5
1 0 0 0.5
1 0 0 0.5
1 0 0 0.5
1 0 0 0.5
1 0 0 0.5
1 0 0 0.5
1 0 0 0.5
1 0 0 0.5
1 0 0 0.5
1 0 0 0.5
1 0 0 0.5
1 0 0 0.5
1 0 0 0.5
1 0 0 0.5
1 0 0 0.5
1 0 0 0.5
1 0 0 0.5
1 0 0 0.5
1 0 0 0.5
1 0 0 0.5
1 0 0 0.5
1 0 0 0.5
1 0 0 0.5
1 0 0 0.5
1 0 0 0.5
1 0 0 0.5
1 0 0 0.5
1 0 0 0.5
1 0 0 0.5
1 0 0 0.5
1 0 0 0.5
1 0 0 0.5
1 0 0 0.5
1 0 0 0.5
1 0 0 0.5
1 0 0 0.5
1 0 0 0.5
1 0 0 0.5
1 0 0 0.5
1 0 0 0.5
1 0 0 0.5
1 0 0 0.5
1 0 0 0.5
1 0 0 0.5
1 0 0 0.5
1 0 0 0.5
1 0 0 0.5
1 0 0 0.5
1 0 0 0.5
1 0 0 0.5
1 0 0 0.5
1 0 0 0.5
1 0 0 0.5
1 0 0 0.5
1 0 0 0.5
1 0 0 0.5

