# vtk DataFile Version 3.0
Gocad TSurf to VTK
ASCII
DATASET POLYDATA
POINTS 399 float
21542698.000 4552542.000 -5000.000
21542912.000 4552410.000 -4068.399
21542838.000 4552400.000 -4065.333
21543094.000 4552187.000 -2630.665
21542672.000 4552539.000 -5000.000
21543088.000 4552496.000 -4064.345
21543242.000 4552206.500 -2636.799
21542758.000 4552572.500 -5000.000
21543250.000 4552580.000 -4060.965
21543592.000 4552379.000 -2628.690
21542814.000 4552601.500 -5000.000
21542826.000 4552569.500 -5000.000
21543282.000 4552488.000 -4068.554
21543920.000 4552547.500 -2621.930
21543146.000 4552236.500 -4057.700
21543708.000 4551860.000 -2615.401
21542778.000 4552482.500 -5000.000
21542736.000 4551482.000 -4057.700
21543436.000 4551357.000 -2615.401
21542636.000 4552221.000 -5000.000
21542278.000 4551563.500 -5000.000
21542462.000 4551208.000 -4050.419
21542888.000 4550808.500 -2600.837
21542182.000 4551469.500 -5000.000
21541898.000 4551185.500 -5000.000
21541638.000 4550385.000 -4050.419
21542338.000 4550260.000 -2600.837
21541180.000 4550467.000 -5000.000
21541316.000 4550003.000 -4048.863
21541696.000 4549496.000 -2597.725
21541068.000 4550335.500 -5000.000
21540736.000 4549940.500 -5000.000
21540352.000 4548857.500 -4048.863
21541052.000 4548732.500 -2597.725
21539894.000 4548939.500 -5000.000
21540194.000 4548548.000 -4032.915
21539836.000 4548834.500 -5000.000
21539676.000 4548518.000 -5000.000
21539722.000 4547619.500 -4032.915
21540422.000 4547494.500 -2565.830
21539260.000 4547702.000 -5000.000
21539182.000 4547556.000 -5000.000
21539492.000 4547192.500 -4036.556
21538580.000 4546431.500 -5000.000
21538346.000 4545994.000 -5000.000
21538806.000 4545911.500 -4036.556
21539964.000 4546640.500 -2573.112
21538226.000 4545886.500 -5000.000
21538450.000 4545605.000 -4061.003
21538794.000 4545173.000 -2622.007
21537854.000 4545567.000 -5000.000
21537382.000 4544685.000 -4061.003
21538082.000 4544560.000 -2622.007
21536926.000 4544766.500 -5000.000
21536784.000 4544639.500 -5000.000
21536976.000 4544321.000 -4064.047
21537270.000 4543832.500 -2628.094
21536842.000 4544146.000 -4056.172
21536738.000 4544580.000 -5000.000
21536218.000 4544114.000 -5000.000
21535676.000 4543629.000 -5000.000
21535254.000 4543251.000 -5000.000
21535624.000 4543055.000 -4056.172
21537002.000 4543482.500 -2612.344
21535114.000 4543069.500 -5000.000
21535222.000 4542530.000 -4056.172
21535922.000 4542405.000 -2612.344
21534764.000 4542611.500 -5000.000
21534472.000 4542470.000 -5000.000
21534386.000 4542155.000 -4147.881
21534433.156 4542155.000 -4077.048
21534218.000 4542347.000 -5000.000
21534028.000 4542155.000 -4688.524
21533790.000 4542155.000 -5000.000
21534450.000 4542155.000 -4051.746
21534484.000 4542155.000 -4000.000
21534594.000 4542155.000 -3835.352
21534652.500 4542155.000 -3747.299
21534912.000 4542155.000 -3356.707
21535364.000 4542155.000 -2673.483
21535812.000 4542155.000 -2000.000
21536622.000 4542280.000 -1168.517
21536242.000 4542155.000 -1352.159
21536190.000 4542755.000 -2612.344
21536756.000 4542455.000 -1168.517
21537162.000 4542819.000 -1168.517
21537564.000 4543344.000 -1192.141
21537858.000 4542855.000 243.676
21537858.000 4542855.000 243.677
21537858.000 4542855.000 243.675
21538782.000 4544435.000 -1183.010
21538004.000 4542986.000 242.813
21539138.000 4544741.500 -1183.010
21539482.000 4544310.500 253.947
21539506.000 4545786.500 -2573.112
21540206.000 4545661.500 -1109.667
21540436.000 4546088.500 -1109.667
21541122.000 4547369.500 -1098.745
21541820.000 4547245.000 365.364
21541820.000 4547242.000 365.312
21541820.000 4547245.500 365.374
21541280.000 4547679.000 -1098.745
21541844.000 4547286.000 366.203
21540736.000 4548113.500 -2565.830
21541752.000 4548607.500 -1146.588
21542074.000 4548989.500 -1146.588
21542452.000 4548482.500 304.550
21543038.000 4550135.000 -1151.256
21542932.000 4549053.500 302.224
21542568.000 4548620.000 304.264
21543260.000 4549448.500 290.438
21543354.000 4549558.500 293.707
21543310.000 4549505.500 295.422
21543490.000 4549714.500 299.529
21543738.000 4550010.000 298.325
21543678.000 4549932.500 307.674
21543312.000 4550409.000 -1151.256
21544136.000 4551232.000 -1173.101
21544272.000 4551483.500 -1173.101
21544836.000 4551107.000 269.199
21543982.000 4552363.000 -2637.108
21544682.000 4552238.000 -1205.663
21544588.000 4552515.000 -1182.896
21544096.000 4552262.000 -1193.036
21545256.000 4552482.000 254.613
21545256.000 4552481.500 254.579
21545150.000 4552428.500 251.563
21544904.000 4552300.500 248.858
21544602.000 4552145.000 242.619
21544850.000 4552272.000 248.258
21544466.000 4552077.500 239.446
21544476.000 4552082.500 240.208
21544212.000 4551956.500 221.211
21543950.000 4551823.000 227.492
21543902.000 4551800.000 226.402
21543902.000 4551799.500 228.610
21543572.000 4552003.000 -1205.199
21543732.000 4551777.500 233.435
21543350.000 4551973.500 -1195.997
21543606.000 4551760.500 237.046
21543606.000 4551761.000 237.034
21543560.000 4551906.500 242.889
21543552.000 4551932.500 243.639
21543552.000 4551932.500 243.930
21543310.000 4552102.500 -1192.271
21543186.000 4553029.500 -1146.311
21543068.000 4552273.000 -2628.180
21542984.000 4552891.000 -2597.541
21542824.000 4552443.000 -4064.090
21542784.000 4552752.000 -4048.771
21542666.000 4552554.000 -5000.000
21542652.000 4552661.000 -5000.000
21542570.000 4552903.000 -5000.000
21542688.000 4553028.500 -4048.771
21542536.000 4552998.000 -5000.000
21542198.000 4552776.000 -4048.771
21542596.000 4552907.000 -2597.541
21542368.000 4552911.000 -5000.000
21541938.000 4552690.000 -5000.000
21541674.000 4552517.000 -4048.771
21542244.000 4552734.000 -2597.541
21541758.000 4552601.000 -5000.000
21541300.000 4552375.000 -5000.000
21541452.000 4552487.500 -4048.771
21542096.000 4552714.500 -2597.541
21541222.000 4552364.500 -5000.000
21541028.000 4552338.500 -5000.000
21540994.000 4552451.500 -5000.000
21541412.000 4552616.500 -4048.771
21540980.000 4552496.000 -5000.000
21540936.000 4552815.500 -5000.000
21541288.000 4553543.500 -4048.771
21541988.000 4553418.500 -2597.541
21540830.000 4553625.500 -5000.000
21541300.000 4553859.000 -4023.106
21540830.000 4553733.000 -5000.000
21540860.000 4554568.000 -5000.000
21541336.000 4554806.000 -4023.106
21542012.000 4554050.000 -2546.211
21540872.000 4554888.500 -5000.000
21541480.000 4555834.000 -5000.000
21542024.000 4555878.000 -4023.106
21542036.000 4554681.000 -2546.211
21541714.000 4556197.000 -5000.000
21541798.000 4556317.000 -5000.000
21542254.000 4556235.500 -4063.634
21542954.000 4556110.500 -2627.268
21542330.000 4556972.000 -5000.000
21542364.000 4557013.000 -5000.000
21542904.000 4557036.500 -4063.634
21542590.000 4557292.000 -5000.000
21543890.000 4557996.500 -4063.634
21544044.000 4557284.500 -2627.268
21542934.000 4557626.000 -5000.000
21543790.000 4558460.500 -5000.000
21544108.000 4558263.500 -4053.841
21544480.000 4557818.500 -2607.682
21543864.000 4558554.500 -5000.000
21543980.000 4558665.000 -5000.000
21544436.000 4558583.500 -4068.661
21544676.000 4559631.000 -5000.000
21545238.000 4559697.000 -4068.661
21545136.000 4558458.500 -2637.322
21544956.000 4560019.500 -5000.000
21545506.000 4560068.000 -4068.205
21545672.000 4559201.000 -2637.322
21545050.000 4560149.500 -5000.000
21545052.000 4560300.500 -5000.000
21545500.000 4560495.500 -4091.309
21546206.000 4559943.000 -2636.410
21545036.000 4561403.500 -5000.000
21545480.000 4561778.500 -4091.309
21546192.000 4560798.000 -2682.619
21545028.000 4561859.000 -5000.000
21544742.000 4562207.500 -5000.000
21544688.000 4562623.000 -4316.310
21544916.000 4562576.500 -4078.134
21544674.000 4562290.000 -5000.000
21544564.000 4562684.000 -4490.545
21544202.000 4562863.000 -5000.000
21545580.000 4562441.000 -3377.686
21545666.000 4562423.500 -3286.572
21545956.000 4562111.000 -2674.604
21545966.000 4562103.500 -2656.268
21546262.000 4561899.500 -2169.710
21546886.000 4561101.000 -1273.928
21546906.000 4559818.000 -1204.616
21546518.000 4561724.000 -1752.367
21546618.000 4561644.500 -1575.453
21546758.000 4561535.000 -1326.793
21546802.000 4561501.000 -1249.363
21546812.000 4561492.500 -1231.242
21546860.000 4561448.500 -1139.343
21546860.000 4561448.500 -1138.556
21546908.000 4561404.500 -1046.061
21546908.000 4561404.000 -1045.900
21546908.000 4561402.000 -1042.417
21546936.000 4561362.500 -972.190
21547122.000 4561089.000 -489.105
21547122.000 4561086.500 -485.321
21547480.000 4559843.000 75.811
21547286.000 4560845.000 -58.031
21547300.000 4560826.000 -24.646
21547300.000 4560824.500 -22.021
21547286.000 4560845.500 -58.001
21547286.000 4560845.500 -58.016
21547342.000 4560763.000 87.278
21547344.000 4560761.000 91.035
21547346.000 4560757.500 97.284
21547348.000 4560756.000 100.973
21547350.000 4560754.500 103.805
21547356.000 4560748.500 115.637
21547360.000 4560741.500 128.255
21547368.000 4560735.000 141.378
21547368.000 4560734.500 142.434
21547376.000 4560726.000 159.673
21547378.000 4560715.500 159.987
21547460.000 4560258.500 192.125
21547536.000 4559837.500 219.522
21547332.000 4559492.000 241.710
21547480.000 4560154.000 202.570
21547484.000 4559746.000 228.968
21546536.000 4558208.500 225.357
21547242.000 4559340.500 250.927
21546104.000 4558704.500 -1205.982
21545836.000 4558333.500 -1205.982
21545352.000 4557055.000 278.767
21545222.000 4556929.500 283.682
21545420.000 4557120.500 276.215
21545666.000 4557359.000 266.853
21545828.000 4557512.500 267.824
21546078.000 4557751.500 266.297
21546442.000 4558109.000 243.726
21546534.000 4558199.000 238.042
21546540.000 4558205.500 237.793
21546540.000 4558206.000 237.780
21546544.000 4558213.000 237.696
21546846.000 4558703.500 240.330
21547014.000 4558966.000 253.768
21547162.000 4559201.500 259.306
21544850.000 4557373.500 -1161.523
21545222.000 4556929.000 283.706
21544200.000 4556572.500 -1190.901
21543388.000 4556644.500 -2627.268
21545222.000 4556928.500 283.715
21545202.000 4556903.500 283.725
21544354.000 4555860.500 245.465
21545218.000 4556924.500 283.786
21544518.000 4556061.000 254.870
21543872.000 4556252.500 -1190.901
21543654.000 4555985.500 -1190.901
21542966.000 4554913.500 -1069.317
21542496.000 4555396.000 -2546.211
21544234.000 4555679.000 261.183
21544134.000 4555534.000 264.859
21544270.000 4555728.500 260.425
21544358.000 4555857.500 258.452
21543988.000 4555292.000 309.944
21543590.000 4554670.000 380.497
21543492.000 4554523.500 389.748
21543714.000 4554857.000 368.643
21543886.000 4555121.000 341.838
21543428.000 4554438.500 384.642
21542736.000 4554556.000 -1069.317
21543424.000 4554433.000 384.348
21542724.000 4554240.500 -1069.317
21542688.000 4553293.500 -1146.311
21543388.000 4553168.500 304.918
21543428.000 4554196.000 388.482
21542728.000 4552984.500 -1146.311
21542070.000 4552800.500 -2597.541
21542742.000 4552941.500 -1146.311
21542816.000 4552951.500 -1146.311
21542992.000 4553037.500 -1146.311
21543156.000 4553122.000 -1146.311
21542922.000 4553075.000 -2597.541
21543420.000 4552922.500 292.712
21543428.000 4552862.000 285.924
21543394.000 4553167.500 320.244
21543406.000 4553562.500 343.730
21543404.000 4553383.500 343.342
21543426.000 4554115.500 389.775
21543438.000 4552780.500 277.524
21543442.000 4552743.000 273.799
21543506.000 4552275.500 254.431
21543550.000 4551948.000 244.399
21543552.000 4551934.000 243.978
21543424.000 4554428.000 384.414
21544920.000 4556548.000 282.641
21544776.000 4556370.000 279.492
21543606.000 4551761.000 237.012
21544602.000 4552144.500 242.758
21544602.000 4552145.000 242.769
21545298.000 4552353.500 239.822
21545328.000 4552263.000 230.794
21545352.000 4552201.500 233.062
21545382.000 4552113.000 225.783
21545388.000 4552112.500 236.352
21545272.000 4551908.500 234.603
21545224.000 4551825.500 233.885
21545360.000 4552066.000 235.945
21545058.000 4551527.000 239.322
21545008.000 4551424.500 255.491
21544994.000 4551395.000 260.161
21544842.000 4551102.500 287.596
21544738.000 4550998.500 289.484
21544736.000 4550996.500 289.518
21544604.000 4550869.500 284.605
21544288.000 4550559.500 283.738
21544222.000 4550495.000 283.562
21544134.000 4550411.000 278.839
21544014.000 4550285.000 291.020
21543742.000 4550006.500 310.431
21543796.000 4550058.500 312.975
21542920.000 4549038.500 302.660
21542528.000 4548571.000 306.435
21542550.000 4548597.500 305.636
21542456.000 4548480.000 315.234
21542236.000 4548036.000 351.311
21542032.000 4547642.500 361.563
21541984.000 4547543.000 371.393
21541720.000 4547061.000 361.704
21541658.000 4546940.500 365.747
21541674.000 4546969.000 365.990
21541406.000 4546481.000 349.328
21541244.000 4546186.000 338.994
21541046.000 4545809.500 344.108
21540956.000 4545640.000 342.881
21540900.000 4545542.500 337.858
21540898.000 4545538.000 337.616
21540712.000 4545380.500 317.353
21540468.000 4545176.000 290.818
21540240.000 4544983.000 270.280
21540136.000 4544893.500 261.697
21540014.000 4544785.500 258.322
21539778.000 4544578.000 250.599
21539690.000 4544499.000 252.622
21539484.000 4544312.000 253.937
21541670.000 4546959.500 366.430
21539482.000 4544310.000 253.949
21539336.000 4544179.500 254.894
21538776.000 4543677.500 250.692
21538486.000 4543423.500 237.397
21539090.000 4543959.000 253.581
21539324.000 4544169.000 254.969
21538818.000 4543713.500 252.590
21538328.000 4543285.500 229.535
21537818.000 4542802.000 245.468
21537732.000 4542691.500 251.170
21537322.000 4542155.000 275.312
21537618.000 4542542.000 258.872
21537300.984 4542155.000 243.526
21537140.000 4542155.000 0.000
21536475.609 4542155.000 -1000.000
21536382.000 4542155.000 -1140.897
21536344.000 4542155.000 -1199.078
21537428.000 4542290.000 275.223
21537336.000 4542170.500 278.953
21537324.000 4542155.000 279.408

POLYGONS 529 2116
3 353 351 352
3 307 318 319
3 310 164 311
3 180 177 181
3 295 286 293
3 284 282 285
3 20 23 21
3 236 235 225
3 307 145 316
3 240 239 225
3 54 57 55
3 119 344 343
3 176 175 174
3 291 302 299
3 189 186 283
3 176 174 177
3 123 134 136
3 62 66 83
3 184 181 185
3 354 108 109
3 396 389 397
3 179 176 177
3 106 358 357
3 201 202 205
3 62 65 66
3 154 152 153
3 189 185 186
3 121 336 335
3 240 256 255
3 173 170 171
3 395 394 81
3 146 144 147
3 254 240 255
3 101 104 103
3 16 19 17
3 121 125 124
3 171 168 172
3 207 204 208
3 191 189 192
3 306 305 178
3 28 33 29
3 231 230 225
3 41 43 42
3 84 81 389
3 162 159 163
3 114 115 352
3 300 297 298
3 209 212 208
3 227 224 225
3 319 321 308
3 56 86 52
3 313 307 312
3 61 64 62
3 152 151 149
3 389 398 397
3 175 173 174
3 156 313 312
3 96 368 367
3 70 74 65
3 103 33 35
3 111 110 112
3 123 128 130
3 102 101 100
3 303 304 302
3 155 156 160
3 57 62 63
3 96 95 368
3 200 199 201
3 203 200 201
3 122 123 13
3 198 197 195
3 213 210 211
3 54 58 57
3 91 90 89
3 146 147 149
3 118 119 121
3 106 357 355
3 104 106 105
3 76 77 66
3 14 18 15
3 101 106 104
3 172 310 306
3 23 24 21
3 138 144 3
3 291 299 298
3 145 322 317
3 35 33 32
3 44 47 45
3 68 69 65
3 106 355 109
3 127 122 126
3 114 107 113
3 210 207 208
3 224 212 225
3 96 99 98
3 196 280 202
3 262 274 275
3 55 56 51
3 42 45 46
3 153 315 156
3 239 238 225
3 86 90 52
3 201 199 202
3 389 390 388
3 168 310 172
3 128 331 131
3 170 169 168
3 163 159 164
3 194 191 195
3 214 213 211
3 300 301 297
3 310 309 306
3 288 328 285
3 177 178 182
3 115 114 113
3 207 206 204
3 128 129 332
3 86 87 89
3 294 291 297
3 116 114 117
3 117 114 351
3 144 142 145
3 285 287 284
3 283 186 290
3 143 142 141
3 96 97 46
3 345 119 346
3 190 188 189
3 85 86 63
3 153 147 315
3 170 168 171
3 80 82 81
3 83 81 84
3 263 262 277
3 224 223 212
3 161 158 159
3 282 284 281
3 27 28 25
3 292 182 303
3 90 386 382
3 172 306 178
3 336 340 337
3 336 338 340
3 105 106 107
3 121 342 341
3 35 39 103
3 106 102 359
3 28 32 33
3 21 22 17
3 97 98 100
3 20 21 17
3 335 336 337
3 103 39 97
3 264 262 226
3 4 2 148
3 48 52 49
3 372 95 373
3 291 286 290
3 42 39 38
3 168 163 164
3 130 128 131
3 1 3 2
3 95 374 373
3 46 97 39
3 346 119 347
3 119 348 347
3 183 180 181
3 105 107 26
3 169 167 168
3 156 315 313
3 181 177 182
3 268 262 266
3 192 280 196
3 389 396 390
3 96 367 366
3 56 52 51
3 58 59 57
3 203 201 204
3 61 62 57
3 123 136 9
3 41 42 38
3 107 114 116
3 205 209 204
3 95 371 370
3 24 27 25
3 73 72 71
3 159 155 160
3 138 139 141
3 85 88 87
3 48 51 52
3 95 375 374
3 97 96 98
3 252 251 240
3 254 253 240
3 180 179 177
3 230 229 225
3 122 121 124
3 228 227 225
3 121 334 333
3 259 262 263
3 181 186 185
3 90 382 381
3 15 118 120
3 192 283 282
3 134 123 133
3 158 157 155
3 282 286 285
3 94 95 96
3 190 189 191
3 142 138 141
3 246 243 240
3 28 29 25
3 277 262 276
3 30 31 28
3 63 86 56
3 72 69 71
3 13 9 8
3 106 101 102
3 205 265 264
3 145 317 316
3 375 95 376
3 198 195 199
3 63 56 57
3 349 117 350
3 210 208 211
3 229 228 225
3 31 32 28
3 136 137 330
3 286 291 293
3 50 53 51
3 118 121 120
3 226 240 225
3 368 95 369
3 57 56 55
3 66 65 76
3 187 184 185
3 102 360 359
3 96 362 361
3 119 117 348
3 78 79 66
3 200 198 199
3 392 391 81
3 24 25 21
3 96 361 99
3 315 145 314
3 14 15 12
3 292 186 181
3 323 145 324
3 197 194 195
3 9 136 6
3 265 262 264
3 166 165 163
3 303 305 304
3 364 96 365
3 136 138 6
3 212 222 211
3 251 250 240
3 3 146 2
3 40 41 38
3 290 286 289
3 22 107 116
3 283 290 289
3 215 214 211
3 85 84 389
3 44 45 42
3 123 130 132
3 262 271 272
3 5 6 1
3 0 1 2
3 103 97 101
3 85 388 387
3 49 52 90
3 81 66 80
3 358 106 359
3 162 161 159
3 266 265 267
3 95 377 376
3 13 123 9
3 326 142 143
3 121 119 342
3 14 17 18
3 68 71 69
3 293 291 294
3 8 9 5
3 120 122 13
3 248 247 240
3 194 193 191
3 211 208 212
3 107 111 113
3 206 203 204
3 315 147 145
3 9 6 5
3 362 378 363
3 274 262 273
3 265 280 267
3 151 150 149
3 110 107 108
3 205 264 209
3 381 385 383
3 36 37 35
3 263 277 278
3 338 121 339
3 247 246 240
3 240 259 258
3 90 86 89
3 234 233 225
3 253 252 240
3 223 222 212
3 34 36 35
3 280 265 202
3 307 316 318
3 182 178 305
3 77 78 66
3 308 307 319
3 238 237 225
3 45 94 46
3 116 117 18
3 96 366 365
3 339 121 341
3 83 84 85
3 283 289 282
3 256 240 257
3 63 83 85
3 292 303 291
3 318 320 319
3 291 290 292
3 152 149 153
3 2 146 148
3 304 305 327
3 10 11 8
3 292 290 186
3 15 117 118
3 315 314 313
3 369 95 370
3 119 343 342
3 6 3 1
3 120 13 12
3 196 202 199
3 150 4 148
3 267 280 281
3 324 145 325
3 22 26 107
3 103 104 33
3 145 307 314
3 222 221 211
3 111 107 110
3 380 383 384
3 74 75 65
3 201 205 204
3 286 288 285
3 226 225 212
3 235 234 225
3 4 0 2
3 81 82 395
3 350 117 351
3 83 66 81
3 49 94 45
3 393 392 81
3 69 70 65
3 46 94 96
3 380 90 381
3 171 172 174
3 165 162 163
3 90 91 386
3 122 128 123
3 312 307 311
3 351 114 352
3 262 268 269
3 7 8 5
3 159 160 164
3 153 149 147
3 273 262 272
3 306 307 305
3 117 119 118
3 348 117 349
3 107 106 108
3 193 190 191
3 92 93 377
3 128 127 129
3 53 54 51
3 237 236 225
3 218 217 215
3 49 90 92
3 138 136 139
3 134 133 135
3 394 393 81
3 85 389 388
3 133 123 132
3 391 389 81
3 92 95 94
3 121 122 120
3 136 140 139
3 15 18 117
3 59 60 57
3 262 269 270
3 158 155 159
3 62 83 63
3 280 282 281
3 242 244 241
3 7 10 8
3 106 109 108
3 49 92 94
3 240 262 259
3 29 105 26
3 167 163 168
3 29 104 105
3 216 215 211
3 263 278 279
3 43 44 42
3 31 34 32
3 259 261 258
3 282 280 192
3 11 16 14
3 220 216 211
3 160 312 311
3 155 153 156
3 160 156 312
3 85 387 88
3 92 90 93
3 188 185 189
3 257 258 260
3 64 65 62
3 217 214 215
3 6 138 3
3 12 13 8
3 136 134 137
3 204 209 208
3 336 121 338
3 191 196 195
3 217 218 219
3 121 333 125
3 262 240 226
3 205 202 265
3 164 160 311
3 192 196 191
3 271 262 270
3 262 275 276
3 138 142 144
3 221 220 211
3 90 380 379
3 250 249 240
3 64 67 65
3 157 154 155
3 60 61 57
3 233 232 225
3 37 38 35
3 35 38 39
3 371 95 372
3 15 120 12
3 27 30 28
3 148 146 149
3 289 286 282
3 356 109 355
3 22 116 18
3 305 308 327
3 128 122 127
3 177 174 178
3 314 307 313
3 50 51 48
3 244 245 241
3 305 307 308
3 311 307 309
3 140 136 330
3 297 291 298
3 291 303 302
3 67 68 65
3 11 14 12
3 95 92 377
3 195 196 199
3 189 283 192
3 0 7 5
3 167 166 163
3 34 35 32
3 48 49 45
3 150 148 149
3 249 248 240
3 54 55 51
3 137 134 135
3 181 182 292
3 257 240 258
3 168 164 310
3 122 124 126
3 19 20 17
3 242 241 240
3 101 97 100
3 86 85 87
3 145 323 322
3 328 288 329
3 121 335 334
3 145 142 325
3 264 226 209
3 381 383 380
3 188 187 185
3 296 286 295
3 11 12 8
3 209 226 212
3 47 50 48
3 310 311 309
3 93 90 379
3 241 239 240
3 144 145 147
3 0 5 1
3 331 128 332
3 21 26 22
3 232 231 225
3 119 345 344
3 172 178 174
3 37 40 38
3 3 144 146
3 154 153 155
3 16 17 14
3 362 96 364
3 142 326 325
3 29 26 25
3 21 25 26
3 173 171 174
3 79 80 66
3 47 48 45
3 243 242 240
3 262 265 266
3 184 183 181
3 288 286 296
3 75 76 65
3 362 363 361
3 46 39 42
3 309 307 306
3 22 18 17
3 29 33 104
3 182 305 303

POINT_DATA 399
COLOR_SCALARS GocadColor 4
1 0 0 0.5
1 0 0 0.5
1 0 0 0.5
1 0 0 0.5
1 0 0 0.5
1 0 0 0.5
1 0 0 0.5
1 0 0 0.5
1 0 0 0.5
1 0 0 0.5
1 0 0 0.5
1 0 0 0.5
1 0 0 0.5
1 0 0 0.5
1 0 0 0.5
1 0 0 0.5
1 0 0 0.5
1 0 0 0.5
1 0 0 0.5
1 0 0 0.5
1 0 0 0.5
1 0 0 0.5
1 0 0 0.5
1 0 0 0.5
1 0 0 0.5
1 0 0 0.5
1 0 0 0.5
1 0 0 0.5
1 0 0 0.5
1 0 0 0.5
1 0 0 0.5
1 0 0 0.5
1 0 0 0.5
1 0 0 0.5
1 0 0 0.5
1 0 0 0.5
1 0 0 0.5
1 0 0 0.5
1 0 0 0.5
1 0 0 0.5
1 0 0 0.5
1 0 0 0.5
1 0 0 0.5
1 0 0 0.5
1 0 0 0.5
1 0 0 0.5
1 0 0 0.5
1 0 0 0.5
1 0 0 0.5
1 0 0 0.5
1 0 0 0.5
1 0 0 0.5
1 0 0 0.5
1 0 0 0.5
1 0 0 0.5
1 0 0 0.5
1 0 0 0.5
1 0 0 0.5
1 0 0 0.5
1 0 0 0.5
1 0 0 0.5
1 0 0 0.5
1 0 0 0.5
1 0 0 0.5
1 0 0 0.5
1 0 0 0.5
1 0 0 0.5
1 0 0 0.5
1 0 0 0.5
1 0 0 0.5
1 0 0 0.5
1 0 0 0.5
1 0 0 0.5
1 0 0 0.5
1 0 0 0.5
1 0 0 0.5
1 0 0 0.5
1 0 0 0.5
1 0 0 0.5
1 0 0 0.5
1 0 0 0.5
1 0 0 0.5
1 0 0 0.5
1 0 0 0.5
1 0 0 0.5
1 0 0 0.5
1 0 0 0.5
1 0 0 0.5
1 0 0 0.5
1 0 0 0.5
1 0 0 0.5
1 0 0 0.5
1 0 0 0.5
1 0 0 0.5
1 0 0 0.5
1 0 0 0.5
1 0 0 0.5
1 0 0 0.5
1 0 0 0.5
1 0 0 0.5
1 0 0 0.5
1 0 0 0.5
1 0 0 0.5
1 0 0 0.5
1 0 0 0.5
1 0 0 0.5
1 0 0 0.5
1 0 0 0.5
1 0 0 0.5
1 0 0 0.5
1 0 0 0.5
1 0 0 0.5
1 0 0 0.5
1 0 0 0.5
1 0 0 0.5
1 0 0 0.5
1 0 0 0.5
1 0 0 0.5
1 0 0 0.5
1 0 0 0.5
1 0 0 0.5
1 0 0 0.5
1 0 0 0.5
1 0 0 0.5
1 0 0 0.5
1 0 0 0.5
1 0 0 0.5
1 0 0 0.5
1 0 0 0.5
1 0 0 0.5
1 0 0 0.5
1 0 0 0.5
1 0 0 0.5
1 0 0 0.5
1 0 0 0.5
1 0 0 0.5
1 0 0 0.5
1 0 0 0.5
1 0 0 0.5
1 0 0 0.5
1 0 0 0.5
1 0 0 0.5
1 0 0 0.5
1 0 0 0.5
1 0 0 0.5
1 0 0 0.5
1 0 0 0.5
1 0 0 0.5
1 0 0 0.5
1 0 0 0.5
1 0 0 0.5
1 0 0 0.5
1 0 0 0.5
1 0 0 0.5
1 0 0 0.5
1 0 0 0.5
1 0 0 0.5
1 0 0 0.5
1 0 0 0.5
1 0 0 0.5
1 0 0 0.5
1 0 0 0.5
1 0 0 0.5
1 0 0 0.5
1 0 0 0.5
1 0 0 0.5
1 0 0 0.5
1 0 0 0.5
1 0 0 0.5
1 0 0 0.5
1 0 0 0.5
1 0 0 0.5
1 0 0 0.5
1 0 0 0.5
1 0 0 0.5
1 0 0 0.5
1 0 0 0.5
1 0 0 0.5
1 0 0 0.5
1 0 0 0.5
1 0 0 0.5
1 0 0 0.5
1 0 0 0.5
1 0 0 0.5
1 0 0 0.5
1 0 0 0.5
1 0 0 0.5
1 0 0 0.5
1 0 0 0.5
1 0 0 0.5
1 0 0 0.5
1 0 0 0.5
1 0 0 0.5
1 0 0 0.5
1 0 0 0.5
1 0 0 0.5
1 0 0 0.5
1 0 0 0.5
1 0 0 0.5
1 0 0 0.5
1 0 0 0.5
1 0 0 0.5
1 0 0 0.5
1 0 0 0.5
1 0 0 0.5
1 0 0 0.5
1 0 0 0.5
1 0 0 0.5
1 0 0 0.5
1 0 0 0.5
1 0 0 0.5
1 0 0 0.5
1 0 0 0.5
1 0 0 0.5
1 0 0 0.5
1 0 0 0.5
1 0 0 0.5
1 0 0 0.5
1 0 0 0.5
1 0 0 0.5
1 0 0 0.5
1 0 0 0.5
1 0 0 0.5
1 0 0 0.5
1 0 0 0.5
1 0 0 0.5
1 0 0 0.5
1 0 0 0.5
1 0 0 0.5
1 0 0 0.5
1 0 0 0.5
1 0 0 0.5
1 0 0 0.5
1 0 0 0.5
1 0 0 0.5
1 0 0 0.5
1 0 0 0.5
1 0 0 0.5
1 0 0 0.5
1 0 0 0.5
1 0 0 0.5
1 0 0 0.5
1 0 0 0.5
1 0 0 0.5
1 0 0 0.5
1 0 0 0.5
1 0 0 0.5
1 0 0 0.5
1 0 0 0.5
1 0 0 0.5
1 0 0 0.5
1 0 0 0.5
1 0 0 0.5
1 0 0 0.5
1 0 0 0.5
1 0 0 0.5
1 0 0 0.5
1 0 0 0.5
1 0 0 0.5
1 0 0 0.5
1 0 0 0.5
1 0 0 0.5
1 0 0 0.5
1 0 0 0.5
1 0 0 0.5
1 0 0 0.5
1 0 0 0.5
1 0 0 0.5
1 0 0 0.5
1 0 0 0.5
1 0 0 0.5
1 0 0 0.5
1 0 0 0.5
1 0 0 0.5
1 0 0 0.5
1 0 0 0.5
1 0 0 0.5
1 0 0 0.5
1 0 0 0.5
1 0 0 0.5
1 0 0 0.5
1 0 0 0.5
1 0 0 0.5
1 0 0 0.5
1 0 0 0.5
1 0 0 0.5
1 0 0 0.5
1 0 0 0.5
1 0 0 0.5
1 0 0 0.5
1 0 0 0.5
1 0 0 0.5
1 0 0 0.5
1 0 0 0.5
1 0 0 0.5
1 0 0 0.5
1 0 0 0.5
1 0 0 0.5
1 0 0 0.5
1 0 0 0.5
1 0 0 0.5
1 0 0 0.5
1 0 0 0.5
1 0 0 0.5
1 0 0 0.5
1 0 0 0.5
1 0 0 0.5
1 0 0 0.5
1 0 0 0.5
1 0 0 0.5
1 0 0 0.5
1 0 0 0.5
1 0 0 0.5
1 0 0 0.5
1 0 0 0.5
1 0 0 0.5
1 0 0 0.5
1 0 0 0.5
1 0 0 0.5
1 0 0 0.5
1 0 0 0.5
1 0 0 0.5
1 0 0 0.5
1 0 0 0.5
1 0 0 0.5
1 0 0 0.5
1 0 0 0.5
1 0 0 0.5
1 0 0 0.5
1 0 0 0.5
1 0 0 0.5
1 0 0 0.5
1 0 0 0.5
1 0 0 0.5
1 0 0 0.5
1 0 0 0.5
1 0 0 0.5
1 0 0 0.5
1 0 0 0.5
1 0 0 0.5
1 0 0 0.5
1 0 0 0.5
1 0 0 0.5
1 0 0 0.5
1 0 0 0.5
1 0 0 0.5
1 0 0 0.5
1 0 0 0.5
1 0 0 0.5
1 0 0 0.5
1 0 0 0.5
1 0 0 0.5
1 0 0 0.5
1 0 0 0.5
1 0 0 0.5
1 0 0 0.5
1 0 0 0.5
1 0 0 0.5
1 0 0 0.5
1 0 0 0.5
1 0 0 0.5
1 0 0 0.5
1 0 0 0.5
1 0 0 0.5
1 0 0 0.5
1 0 0 0.5
1 0 0 0.5
1 0 0 0.5
1 0 0 0.5
1 0 0 0.5
1 0 0 0.5
1 0 0 0.5
1 0 0 0.5
1 0 0 0.5
1 0 0 0.5
1 0 0 0.5
1 0 0 0.5
1 0 0 0.5
1 0 0 0.5
1 0 0 0.5
1 0 0 0.5
1 0 0 0.5
1 0 0 0.5
1 0 0 0.5
1 0 0 0.5
1 0 0 0.5
1 0 0 0.5
1 0 0 0.5
1 0 0 0.5
1 0 0 0.5
1 0 0 0.5
1 0 0 0.5
1 0 0 0.5
1 0 0 0.5
1 0 0 0.5
1 0 0 0.5
1 0 0 0.5
1 0 0 0.5
1 0 0 0.5

