# vtk DataFile Version 3.0
Gocad TSurf to VTK
ASCII
DATASET POLYDATA
POINTS 575 float
21555812.000 4549031.000 471.636
21555698.000 4549614.500 -1013.038
21555754.000 4549147.000 456.564
21555728.000 4549199.500 452.217
21556198.000 4549491.500 -1013.038
21555814.000 4549029.500 472.337
21555584.000 4550203.000 -2508.692
21555242.000 4550497.500 -949.445
21556584.000 4549957.000 -2508.692
21556556.000 4549420.000 -1013.038
21555470.000 4550791.000 -4004.346
21555280.000 4550791.000 -2466.296
21556972.000 4550422.000 -4004.346
21557300.000 4549814.000 -2508.692
21555394.000 4551182.500 -5000.000
21555896.000 4551059.000 -5000.000
21555344.000 4551282.000 -5000.000
21555318.000 4551085.000 -3983.148
21555292.000 4551316.500 -5000.000
21555158.000 4551188.500 -3972.072
21554960.000 4550998.000 -2444.143
21554964.000 4551184.500 -4000.529
21554764.000 4550807.500 -916.214
21554572.000 4550990.000 -2501.059
21555204.000 4550204.500 561.059
21555202.000 4550206.000 561.402
21555206.000 4550201.000 560.359
21555358.000 4549915.000 508.445
21555664.000 4549322.000 466.828
21555712.000 4549229.500 454.476
21555146.000 4550241.500 571.496
21554724.000 4550515.000 600.759
21555128.000 4550252.000 574.364
21554568.000 4550618.500 601.527
21554178.000 4550795.500 -1001.589
21554564.000 4550618.000 601.380
21553384.000 4550799.500 -1001.589
21552984.000 4550998.000 -2501.059
21553786.000 4550601.000 497.882
21552386.000 4550881.500 528.800
21554470.000 4550615.000 597.782
21554414.000 4550613.500 595.595
21553932.000 4550601.000 549.243
21553784.000 4550598.000 529.534
21553780.000 4550598.500 529.037
21553484.000 4550660.000 517.577
21553296.000 4550698.500 515.135
21553208.000 4550715.000 525.309
21552846.000 4550785.000 553.061
21552360.000 4550887.000 527.432
21552358.000 4550887.000 527.360
21552314.000 4551014.000 -977.944
21552358.000 4550887.500 527.332
21552270.000 4551141.000 -2485.296
21552584.000 4551196.500 -4000.529
21552260.000 4551135.500 -977.944
21552162.000 4551384.000 -2485.296
21552356.000 4550888.000 527.208
21550758.000 4551504.500 -1034.762
21552292.000 4550903.500 523.468
21551160.000 4551630.000 -2523.174
21549574.000 4551638.000 -2513.113
21550770.000 4551759.000 -4006.557
21548378.000 4551516.500 -1019.670
21549466.000 4551880.500 -2548.024
21550344.000 4551380.000 445.187
21550122.000 4551384.000 411.659
21550358.000 4551379.500 447.154
21550422.000 4551363.000 456.118
21551300.000 4551147.000 489.361
21550964.000 4551228.000 487.633
21551612.000 4551074.500 471.871
21552060.000 4550961.000 513.247
21552192.000 4550928.500 517.320
21550524.000 4551336.500 470.631
21551232.000 4551163.000 493.192
21549746.000 4551392.000 344.494
21549256.000 4551401.500 262.161
21549070.000 4551405.500 231.188
21548844.000 4551407.500 219.671
21548462.000 4551412.000 194.662
21548260.000 4551410.500 224.392
21547836.000 4551407.000 290.359
21547220.000 4551399.000 427.350
21548216.000 4551880.500 -1072.036
21547376.000 4551400.000 403.414
21547328.000 4551399.000 414.756
21547302.000 4551399.000 420.976
21547214.000 4551409.500 426.884
21549192.000 4552740.500 -1243.294
21550116.000 4552454.000 -2662.196
21548268.000 4553027.000 175.608
21548474.000 4553114.000 154.709
21548234.000 4552996.500 181.683
21548268.000 4553027.500 176.953
21547904.000 4552696.000 227.296
21547888.000 4552681.500 229.567
21547542.000 4552384.000 297.789
21547532.000 4552374.000 299.684
21547194.000 4552068.000 349.856
21547134.000 4552017.500 362.611
21546978.000 4551880.500 389.706
21547004.000 4551904.000 387.064
21546982.000 4551868.500 393.076
21547192.000 4551448.500 425.243
21548274.000 4553030.500 176.298
21548300.000 4553041.500 174.011
21548542.000 4553147.000 157.497
21548984.000 4553377.000 198.167
21549216.000 4553496.000 216.044
21549738.000 4553744.500 220.648
21549182.000 4553478.500 214.662
21549894.000 4553817.000 217.753
21550256.000 4553983.000 208.032
21550606.000 4554168.000 247.255
21550858.000 4554304.000 279.462
21551170.000 4554492.500 359.263
21551850.000 4554885.500 500.452
21551360.000 4554606.000 407.070
21551920.000 4554167.500 -972.492
21551906.000 4554917.000 510.737
21551936.000 4553405.000 -2481.661
21551042.000 4552167.000 -4081.098
21552588.000 4553978.500 -2481.661
21552246.000 4554454.000 -972.492
21552928.000 4553503.000 -3990.831
21553704.000 4553909.000 -4001.602
21551952.000 4552643.000 -3990.831
21553156.000 4553184.500 -5000.000
21552832.000 4552900.000 -5000.000
21553414.000 4553321.500 -5000.000
21555838.000 4554589.500 -5000.000
21556748.000 4555065.500 -5000.000
21556432.000 4555336.000 -4001.602
21557110.000 4555241.500 -5000.000
21554140.000 4554790.500 -2503.204
21555960.000 4555742.000 -2503.204
21554576.000 4555672.000 -1004.806
21551952.000 4554943.000 510.031
21552566.000 4555257.000 484.819
21551912.000 4554922.000 511.275
21551914.000 4554923.500 511.567
21553278.000 4555611.000 433.520
21552724.000 4555342.000 488.721
21553412.000 4555680.500 429.309
21553918.000 4555949.500 432.959
21553934.000 4555957.500 433.516
21553942.000 4555962.000 434.388
21554794.000 4556433.000 479.928
21555010.000 4556551.500 489.611
21554448.000 4556255.500 492.359
21555486.000 4556148.000 -1004.806
21555014.000 4556553.000 489.718
21558088.000 4556731.000 -2608.080
21557496.000 4555830.500 -4054.040
21558678.000 4557631.500 -1162.120
21559640.000 4557543.000 -2608.080
21555020.000 4556556.500 490.019
21555166.000 4556625.500 485.987
21559222.000 4558510.500 286.129
21555022.000 4556558.000 490.148
21556620.000 4557302.500 417.129
21559266.000 4558529.500 279.661
21559268.000 4558530.500 279.323
21559454.000 4558037.500 -1162.120
21559274.000 4558532.500 278.620
21560508.000 4558008.500 -2622.793
21560260.000 4557281.000 -4061.396
21560754.000 4558736.000 -1184.190
21561818.000 4559230.000 -1184.190
21559348.000 4558569.000 267.433
21559636.000 4558715.500 244.678
21559978.000 4558897.000 232.754
21560190.000 4559007.500 221.311
21560694.000 4559288.500 238.843
21560792.000 4559343.000 239.254
21560916.000 4559414.500 248.783
21561002.000 4559463.000 254.413
21560986.000 4559454.000 254.697
21562666.000 4560946.000 365.827
21562668.000 4560948.000 365.557
21561358.000 4559782.500 281.833
21561596.000 4560005.000 317.312
21561002.000 4559463.500 256.096
21561908.000 4560294.000 356.505
21562258.000 4560607.500 382.287
21562660.000 4560941.500 366.375
21562270.000 4560618.000 382.889
21562422.000 4560753.000 390.602
21562668.000 4560948.500 365.517
21563068.000 4560344.500 -1100.482
21562800.000 4560970.500 362.517
21562636.000 4558997.500 -2622.793
21563468.000 4559740.000 -2566.988
21563452.000 4558765.000 -4061.396
21564116.000 4560544.000 -1069.612
21564168.000 4559873.000 -2546.408
21564054.000 4561204.500 389.879
21564066.000 4561207.000 391.103
21563716.000 4561128.500 355.304
21563588.000 4561096.000 332.681
21563494.000 4561079.500 334.142
21562924.000 4560988.500 354.243
21564550.000 4560776.500 -1069.612
21564072.000 4561210.000 391.373
21565034.000 4560339.000 -2546.408
21565674.000 4561251.500 -1181.945
21565518.000 4559901.000 -4023.204
21565784.000 4560655.000 -2621.296
21564218.000 4559202.500 -4023.204
21563868.000 4559136.000 -4033.494
21565838.000 4559611.500 -5000.000
21565398.000 4559375.000 -5000.000
21565964.000 4559670.000 -5000.000
21565892.000 4560059.000 -4060.648
21567052.000 4560639.500 -5000.000
21567142.000 4561173.000 -4060.648
21566616.000 4561398.000 -2621.296
21567486.000 4561026.500 -5000.000
21567628.000 4561159.000 -5000.000
21567552.000 4561561.000 -4044.789
21567988.000 4561227.500 -5000.000
21567436.000 4562173.000 -2589.578
21568136.000 4562306.000 -2589.578
21566090.000 4561623.000 -1181.945
21567322.000 4562785.500 -1134.368
21565564.000 4561847.500 257.261
21565564.000 4561847.500 257.238
21565564.000 4561847.500 257.267
21565564.000 4561847.500 257.279
21565552.000 4561842.000 258.701
21565300.000 4561736.000 283.757
21565348.000 4561757.000 281.222
21565262.000 4561719.000 285.813
21565238.000 4561710.000 289.929
21564162.000 4561255.500 397.494
21564674.000 4561490.000 388.923
21564490.000 4561407.000 395.528
21564174.000 4561261.500 398.288
21565902.000 4562136.000 207.999
21566078.000 4562296.000 201.972
21566372.000 4562564.500 197.563
21566674.000 4562855.000 218.598
21566746.000 4562927.500 229.585
21567144.000 4563321.000 281.823
21567208.000 4563385.500 290.847
21567208.000 4563385.500 290.857
21567672.000 4562852.000 -1134.368
21567216.000 4563387.000 290.957
21568752.000 4562644.000 -2578.632
21568908.000 4561929.000 -4039.316
21568594.000 4563358.500 -1117.947
21568968.000 4563516.500 -1117.947
21567220.000 4563389.500 291.161
21567234.000 4563397.000 291.658
21567280.000 4563422.500 293.278
21567770.000 4563695.000 306.865
21568054.000 4563851.000 313.229
21568302.000 4563988.000 319.931
21568390.000 4564038.500 325.837
21568438.000 4564066.500 329.177
21568440.000 4564068.000 329.402
21569030.000 4564246.500 365.987
21569142.000 4564281.500 375.084
21569634.000 4564433.000 410.310
21569872.000 4563792.000 -1058.578
21569642.000 4564435.000 410.795
21569500.000 4562960.000 -2578.632
21570102.000 4563144.000 -2539.052
21570032.000 4562404.000 -4039.316
21570282.000 4564179.500 -1058.578
21570924.000 4563919.000 -2539.052
21569644.000 4564438.000 411.038
21569708.000 4564468.000 415.701
21569820.000 4564522.500 428.064
21571440.000 4565266.500 483.589
21571276.000 4565194.000 485.732
21571806.000 4565424.500 468.473
21572026.000 4565523.000 469.072
21572302.000 4565646.500 470.612
21572358.000 4565672.000 470.936
21572322.000 4565116.000 -988.642
21572368.000 4565677.000 470.866
21572284.000 4564543.500 -2492.428
21571564.000 4563658.500 -4019.526
21572898.000 4564881.000 -2492.428
21572628.000 4565285.000 -988.642
21573168.000 4564477.000 -3996.214
21573500.000 4565064.500 -2492.428
21572244.000 4563971.000 -3996.214
21573346.000 4564207.500 -5000.000
21573040.000 4564039.000 -5000.000
21573646.000 4564299.000 -5000.000
[...]
POINT_DATA 575
COLOR_SCALARS GocadColor 4
1 0 0 0.5
1 0 0 0.5
1 0 0 0.5
1 0 0 0.5
1 0 0 0.5
1 0 0 0.5
1 0 0 0.5
1 0 0 0.5
1 0 0 0.5
1 0 0 0.5
1 0 0 0.5
1 0 0 0.5
1 0 0 0.5
1 0 0 0.5
1 0 0 0.5
1 0 0 0.5
1 0 0 0.5
1 0 0 0.5
1 0 0 0.5
1 0 0 0.5
1 0 0 0.5
1 0 0 0.5
1 0 0 0.5
1 0 0 0.5
1 0 0 0.5
1 0 0 0.5
1 0 0 0.5
1 0 0 0.5
1 0 0 0.5
1 0 0 0.5
1 0 0 0.5
1 0 0 0.5
1 0 0 0.5
1 0 0 0.5
1 0 0 0.5
1 0 0 0.5
1 0 0 0.5
1 0 0 0.5
1 0 0 0.5
1 0 0 0.5
1 0 0 0.5
1 0 0 0.5
1 0 0 0.5
1 0 0 0.5
1 0 0 0.5
1 0 0 0.5
1 0 0 0.5
1 0 0 0.5
1 0 0 0.5
1 0 0 0.5
1 0 0 0.5
1 0 0 0.5
1 0 0 0.5
1 0 0 0.5
1 0 0 0.5
1 0 0 0.5
1 0 0 0.5
1 0 0 0.5
1 0 0 0.5
1 0 0 0.5
1 0 0 0.5
1 0 0 0.5
1 0 0 0.5
1 0 0 0.5
1 0 0 0.5
1 0 0 0.5
1 0 0 0.5
1 0 0 0.5
1 0 0 0.5
1 0 0 0.5
1 0 0 0.5
1 0 0 0.5
1 0 0 0.5
1 0 0 0.5
1 0 0 0.5
1 0 0 0.5
1 0 0 0.5
1 0 0 0.5
1 0 0 0.5
1 0 0 0.5
1 0 0 0.5
1 0 0 0.5
1 0 0 0.5
1 0 0 0.5
1 0 0 0.5
1 0 0 0.5
1 0 0 0.5
1 0 0 0.5
1 0 0 0.5
1 0 0 0.5
1 0 0 0.5
1 0 0 0.5
1 0 0 0.5
1 0 0 0.5
1 0 0 0.5
1 0 0 0.5
1 0 0 0.5
1 0 0 0.5
1 0 0 0.5
1 0 0 0.5
1 0 0 0.5
1 0 0 0.5
1 0 0 0.5
1 0 0 0.5
1 0 0 0.5
1 0 0 0.5
1 0 0 0.5
1 0 0 0.5
1 0 0 0.5
1 0 0 0.5
1 0 0 0.5
1 0 0 0.5
1 0 0 0.5
1 0 0 0.5
1 0 0 0.5
1 0 0 0.5
1 0 0 0.5
1 0 0 0.5
1 0 0 0.5
1 0 0 0.5
1 0 0 0.5
1 0 0 0.5
1 0 0 0.5
1 0 0 0.5
1 0 0 0.5
1 0 0 0.5
1 0 0 0.5
1 0 0 0.5
1 0 0 0.5
1 0 0 0.5
1 0 0 0.5
1 0 0 0.5
1 0 0 0.5
1 0 0 0.5
1 0 0 0.5
1 0 0 0.5
1 0 0 0.5
1 0 0 0.5
1 0 0 0.5
1 0 0 0.5
1 0 0 0.5
1 0 0 0.5
1 0 0 0.5
1 0 0 0.5
1 0 0 0.5
1 0 0 0.5
1 0 0 0.5
1 0 0 0.5
1 0 0 0.5
1 0 0 0.5
1 0 0 0.5
1 0 0 0.5
1 0 0 0.5
1 0 0 0.5
1 0 0 0.5
1 0 0 0.5
1 0 0 0.5
1 0 0 0.5
1 0 0 0.5
1 0 0 0.5
1 0 0 0.5
1 0 0 0.5
1 0 0 0.5
1 0 0 0.5
1 0 0 0.5
1 0 0 0.5
1 0 0 0.5
1 0 0 0.5
1 0 0 0.5
1 0 0 0.5
1 0 0 0.5
1 0 0 0.5
1 0 0 0.5
1 0 0 0.5
1 0 0 0.5
1 0 0 0.5
1 0 0 0.5
1 0 0 0.5
1 0 0 0.5
1 0 0 0.5
1 0 0 0.5
1 0 0 0.5
1 0 0 0.5
1 0 0 0.5
1 0 0 0.5
1 0 0 0.5
1 0 0 0.5
1 0 0 0.5
1 0 0 0.5
1 0 0 0.5
1 0 0 0.5
1 0 0 0.5
1 0 0 0.5
1 0 0 0.5
1 0 0 0.5
1 0 0 0.5
1 0 0 0.5
1 0 0 0.5
1 0 0 0.5
1 0 0 0.5
1 0 0 0.5
1 0 0 0.5
1 0 0 0.5
1 0 0 0.5
1 0 0 0.5
1 0 0 0.5
1 0 0 0.5
1 0 0 0.5
1 0 0 0.5
1 0 0 0.5
1 0 0 0.5
1 0 0 0.5
1 0 0 0.5
1 0 0 0.5
1 0 0 0.5
1 0 0 0.5
1 0 0 0.5
1 0 0 0.5
1 0 0 0.5
1 0 0 0.5
1 0 0 0.5
1 0 0 0.5
1 0 0 0.5
1 0 0 0.5
1 0 0 0.5
1 0 0 0.5
1 0 0 0.5
1 0 0 0.5
1 0 0 0.5
1 0 0 0.5
1 0 0 0.5
1 0 0 0.5
1 0 0 0.5
1 0 0 0.5
1 0 0 0.5
1 0 0 0.5
1 0 0 0.5
1 0 0 0.5
1 0 0 0.5
1 0 0 0.5
1 0 0 0.5
1 0 0 0.5
1 0 0 0.5
1 0 0 0.5
1 0 0 0.5
1 0 0 0.5
1 0 0 0.5
1 0 0 0.5
1 0 0 0.5
1 0 0 0.5
1 0 0 0.5
1 0 0 0.5
1 0 0 0.5
1 0 0 0.5
1 0 0 0.5
1 0 0 0.5
1 0 0 0.5
1 0 0 0.5
1 0 0 0.5
1 0 0 0.5
1 0 0 0.5
1 0 0 0.5
1 0 0 0.5
1 0 0 0.5
1 0 0 0.5
1 0 0 0.5
1 0 0 0.5
1 0 0 0.5
1 0 0 0.5
1 0 0 0.5
1 0 0 0.5
1 0 0 0.5
1 0 0 0.5
1 0 0 0.5
1 0 0 0.5
1 0 0 0.5
1 0 0 0.5
1 0 0 0.5
1 0 0 0.5
1 0 0 0.5
1 0 0 0.5
1 0 0 0.5
1 0 0 0.5
1 0 0 0.5
1 0 0 0.5
1 0 0 0.5
1 0 0 0.5
1 0 0 0.5
1 0 0 0.5
1 0 0 0.5
1 0 0 0.5
1 0 0 0.5
1 0 0 0.5
1 0 0 0.5
1 0 0 0.5
1 0 0 0.5
1 0 0 0.5
1 0 0 0.5
1 0 0 0.5
1 0 0 0.5
1 0 0 0.5
1 0 0 0.5
1 0 0 0.5
1 0 0 0.5
1 0 0 0.5
1 0 0 0.5
1 0 0 0.5
1 0 0 0.5
1 0 0 0.5
1 0 0 0.5
1 0 0 0.5
1 0 0 0.5
1 0 0 0.5
1 0 0 0.5
1 0 0 0.5
1 0 0 0.5
1 0 0 0.5
1 0 0 0.5
1 0 0 0.5
1 0 0 0.5
1 0 0 0.5
1 0 0 0.5
1 0 0 0.5
1 0 0 0.5
1 0 0 0.5
1 0 0 0.5
1 0 0 0.5
1 0 0 0.5
1 0 0 0.5
1 0 0 0.5
1 0 0 0.5
1 0 0 0.5
1 0 0 0.5
1 0 0 0.5
1 0 0 0.5
1 0 0 0.5
1 0 0 0.5
1 0 0 0.5
1 0 0 0.5
1 0 0 0.5
1 0 0 0.5
1 0 0 0.5
1 0 0 0.5
1 0 0 0.5
1 0 0 0.5
1 0 0 0.5
1 0 0 0.5
1 0 0 0.5
1 0 0 0.5
1 0 0 0.5
1 0 0 0.5
1 0 0 0.5
1 0 0 0.5
1 0 0 0.5
1 0 0 0.5
1 0 0 0.5
1 0 0 0.5
1 0 0 0.5
1 0 0 0.5
1 0 0 0.5
1 0 0 0.5
1 0 0 0.5
1 0 0 0.5
1 0 0 0.5
1 0 0 0.5
1 0 0 0.5
1 0 0 0.5
1 0 0 0.5
1 0 0 0.5
1 0 0 0.5
1 0 0 0.5
1 0 0 0.5
1 0 0 0.5
1 0 0 0.5
1 0 0 0.5
1 0 0 0.5
1 0 0 0.5
1 0 0 0.5
1 0 0 0.5
1 0 0 0.5
1 0 0 0.5
1 0 0 0.5
1 0 0 0.5
1 0 0 0.5
1 0 0 0.5
1 0 0 0.5
1 0 0 0.5
1 0 0 0.5
1 0 0 0.5
1 0 0 0.5
1 0 0 0.5
1 0 0 0.5
1 0 0 0.5
1 0 0 0.5
1 0 0 0.5
1 0 0 0.5
1 0 0 0.5
1 0 0 0.5
1 0 0 0.5
1 0 0 0.5
1 0 0 0.5
1 0 0 0.5
1 0 0 0.5
1 0 0 0.5
1 0 0 0.5
1 0 0 0.5
1 0 0 0.5
1 0 0 0.5
1 0 0 0.5
1 0 0 0.5
1 0 0 0.5
1 0 0 0.5
1 0 0 0.5
1 0 0 0.5
1 0 0 0.5
1 0 0 0.5
1 0 0 0.5
1 0 0 0.5
1 0 0 0.5
1 0 0 0.5
1 0 0 0.5
1 0 0 0.5
1 0 0 0.5
1 0 0 0.5
1 0 0 0.5
1 0 0 0.5
1 0 0 0.5
1 0 0 0.5
1 0 0 0.5
1 0 0 0.5
1 0 0 0.5
1 0 0 0.5
1 0 0 0.5
1 0 0 0.5
1 0 0 0.5
1 0 0 0.5
1 0 0 0.5
1 0 0 0.5
1 0 0 0.5
1 0 0 0.5
1 0 0 0.5
1 0 0 0.5
1 0 0 0.5
1 0 0 0.5
1 0 0 0.5
1 0 0 0.5
1 0 0 0.5
1 0 0 0.5
1 0 0 0.5
1 0 0 0.5
1 0 0 0.5
1 0 0 0.5
1 0 0 0.5
1 0 0 0.5
1 0 0 0.5
1 0 0 0.5
1 0 0 0.5
1 0 0 0.5
1 0 0 0.5
1 0 0 0.5
1 0 0 0.5
1 0 0 0.5
1 0 0 0.5
1 0 0 0.5
1 0 0 0.5
1 0 0 0.5
1 0 0 0.5
1 0 0 0.5
1 0 0 0.5
1 0 0 0.5
1 0 0 0.5
1 0 0 0.5
1 0 0 0.5
1 0 0 0.5
1 0 0 0.5
1 0 0 0.5
1 0 0 0.5
1 0 0 0.5
1 0 0 0.5
1 0 0 0.5
1 0 0 0.5
1 0 0 0.5
1 0 0 0.5
1 0 0 0.5
1 0 0 0.5
1 0 0 0.5
1 0 0 0.5
1 0 0 0.5
1 0 0 0.5
1 0 0 0.5
1 0 0 0.5
1 0 0 0.5
1 0 0 0.5
1 0 0 0.5
1 0 0 0.5
1 0 0 0.5
1 0 0 0.5
1 0 0 0.5
1 0 0 0.5
1 0 0 0.5
1 0 0 0.5
1 0 0 0.5
1 0 0 0.5
1 0 0 0.5
1 0 0 0.5
1 0 0 0.5
1 0 0 0.5
1 0 0 0.5
1 0 0 0.5
1 0 0 0.5
1 0 0 0.5
1 0 0 0.5
1 0 0 0.5
1 0 0 0.5
1 0 0 0.5
1 0 0 0.5
1 0 0 0.5
1 0 0 0.5
1 0 0 0.5
1 0 0 0.5
1 0 0 0.5
1 0 0 0.5
1 0 0 0.5
1 0 0 0.5
1 0 0 0.5
1 0 0 0.5
1 0 0 0.5
1 0 0 0.5
1 0 0 0.5
1 0 0 0.5
1 0 0 0.5
1 0 0 0.5
1 0 0 0.5
1 0 0 0.5
1 0 0 0.5
1 0 0 0.5
1 0 0 0.5
1 0 0 0.5
1 0 0 0.5
1 0 0 0.5
1 0 0 0.5
1 0 0 0.5
1 0 0 0.5
1 0 0 0.5
1 0 0 0.5
1 0 0 0.5
1 0 0 0.5
1 0 0 0.5
1 0 0 0.5
1 0 0 0.5
1 0 0 0.5
1 0 0 0.5
1 0 0 0.5
1 0 0 0.5
1 0 0 0.5
1 0 0 0.5
1 0 0 0.5
1 0 0 0.5
1 0 0 0.5
1 0 0 0.5
1 0 0 0.5
1 0 0 0.5
1 0 0 0.5
1 0 0 0.5
1 0 0 0.5
1 0 0 0.5
1 0 0 0.5
1 0 0 0.5
1 0 0 0.5
1 0 0 0.5
1 0 0 0.5
1 0 0 0.5
1 0 0 0.5
1 0 0 0.5
1 0 0 0.5

