# vtk DataFile Version 3.0
Gocad TSurf to VTK
ASCII
DATASET POLYDATA
POINTS 414 float
21564942.000 4549857.000 371.269
21564940.000 4549859.500 375.437
21564922.000 4549852.000 372.830
21564760.000 4549792.000 355.503
21565152.000 4550013.500 409.484
21566888.000 4550036.000 -898.966
21565326.000 4550139.500 437.359
21565800.000 4549227.500 -1096.548
21567382.000 4549137.000 -2432.644
21565428.000 4548837.500 -1096.548
21566656.000 4548598.000 -2564.365
21564552.000 4548524.500 -1173.021
21565332.000 4547609.500 -2615.348
21564758.000 4549791.500 355.219
21564380.000 4549639.500 300.725
21564326.000 4549618.000 293.472
21564286.000 4549603.500 289.609
21563928.000 4549482.500 266.445
21563778.000 4549432.000 257.760
21563770.000 4549422.500 257.435
21563440.000 4547354.500 -1176.167
21563602.000 4549238.500 251.350
21564590.000 4546829.500 -2617.445
21563404.000 4546911.500 -1189.455
21565740.000 4546304.500 -4058.722
21564566.000 4546534.000 -2626.303
21566110.000 4546694.500 -4057.674
21566620.000 4546096.500 -5000.000
21565916.000 4547818.000 -2564.365
21566404.000 4546799.000 -4032.183
21567514.000 4547969.000 -4032.183
21567876.000 4548238.000 -3966.322
21568080.000 4547554.000 -5000.000
21567702.000 4547155.500 -5000.000
21568210.000 4547632.500 -5000.000
21568496.000 4547734.500 -5000.000
21568754.000 4548551.500 -3966.322
21567968.000 4549346.000 -2432.644
21569286.000 4548016.000 -5000.000
21569416.000 4548163.500 -5000.000
21569174.000 4548952.000 -4029.495
21570374.000 4548874.500 -5000.000
21570744.000 4549149.500 -5000.000
21570260.000 4549760.500 -4029.495
21568804.000 4550147.500 -2558.990
21571170.000 4549558.000 -5000.000
21571518.000 4550963.000 -4029.495
21570368.000 4551488.000 -2558.990
21572276.000 4550616.500 -5000.000
21572370.000 4550759.000 -5000.000
21571766.000 4551411.500 -3982.700
21573036.000 4551962.000 -5000.000
21573282.000 4552405.500 -5000.000
21572510.000 4552757.500 -3982.700
21570864.000 4552385.000 -2465.400
21573434.000 4552967.500 -5000.000
21572976.000 4554463.000 -3982.700
21571672.000 4554419.500 -2465.400
21573852.000 4554492.000 -5000.000
21573900.000 4554680.500 -5000.000
21573132.000 4555031.500 -3991.232
21571982.000 4555556.500 -2482.464
21573980.000 4554869.500 -5000.000
21573392.000 4555575.000 -4029.239
21574668.000 4556305.000 -5000.000
21574818.000 4556616.000 -5000.000
21574936.000 4556859.500 -5000.000
21574176.000 4557206.000 -4029.239
21572504.000 4556644.000 -2558.478
21575056.000 4556975.000 -5000.000
21574532.000 4557545.000 -4031.013
21573738.000 4558409.000 -2562.027
21575420.000 4557321.500 -5000.000
21575600.000 4558562.500 -4031.013
21574450.000 4559087.500 -2562.027
21576358.000 4558216.000 -5000.000
21576610.000 4558404.000 -5000.000
21576340.000 4559115.000 -4030.756
21575928.000 4560192.000 -2561.512
21577366.000 4558968.000 -5000.000
21578558.000 4560771.500 -4030.756
21577408.000 4561296.500 -2561.512
21579316.000 4560425.000 -5000.000
21579504.000 4560604.000 -5000.000
21579092.000 4561330.000 -3984.023
21580034.000 4561156.500 -5000.000
21580698.000 4563006.000 -3984.023
21579548.000 4563531.000 -2468.046
21581468.000 4562654.000 -5000.000
21581644.000 4562864.500 -5000.000
21581224.000 4563648.000 -3977.514
21583054.000 4564589.000 -5000.000
21583570.000 4565221.500 -5000.000
21582798.000 4565574.000 -3977.514
21580598.000 4564815.000 -2455.028
21583772.000 4565621.500 -5000.000
21583412.000 4566792.500 -3977.514
21582056.000 4566911.000 -2455.028
21584320.000 4566712.500 -5000.000
21584306.000 4566815.000 -5000.000
21583864.000 4567140.500 -4551.294
21583540.000 4567378.000 -4223.106
21583344.000 4567478.000 -4099.552
21583196.000 4567556.500 -4005.670
21583154.000 4567579.000 -3978.706
21582928.000 4567732.000 -3777.081
21582816.000 4567799.500 -3672.532
21582550.000 4567957.500 -3426.988
21582302.000 4568049.500 -3293.351
21582196.000 4568091.000 -3236.825
21581526.000 4567604.500 -2455.028
21580702.000 4567030.000 -932.541
21581958.000 4568434.500 -2686.063
21581934.000 4568470.500 -2629.087
21581912.000 4568507.500 -2574.433
21581898.000 4568530.500 -2540.790
21581850.000 4568609.000 -2425.954
21581050.000 4568595.000 -963.867
21581794.000 4568725.500 -2250.012
21580436.000 4567377.000 -932.541
21580166.000 4568773.500 548.177
21581072.000 4569601.500 -1019.118
21579348.000 4567149.000 589.945
21580126.000 4568709.500 560.352
21580164.000 4568774.000 550.125
21579420.000 4567301.000 593.044
21579998.000 4568495.500 596.866
21579390.000 4567244.000 597.359
21579340.000 4567155.000 604.005
21579146.000 4566903.000 587.451
21579284.000 4567092.500 607.664
21578998.000 4566697.000 565.706
21579972.000 4565982.000 -932.541
21578898.000 4566570.500 562.372
21580498.000 4566624.000 -932.541
21581648.000 4566099.000 -2455.028
21578398.000 4564056.000 -952.069
21577254.000 4564578.000 554.759
21577264.000 4564588.500 555.666
21577252.000 4564574.000 554.402
21577864.000 4563497.500 -952.069
21576952.000 4564251.000 518.925
21578478.000 4562414.000 -2468.046
21576258.000 4561821.500 -1092.268
21575108.000 4562346.500 376.975
21575358.000 4562564.500 359.877
21575518.000 4561269.000 -1092.268
21573300.000 4559612.500 -1093.040
21572716.000 4560560.500 376.144
21574986.000 4562264.000 385.962
21572514.000 4560384.000 349.972
21572150.000 4560137.500 375.947
21572346.000 4560283.000 376.015
21572944.000 4559273.500 -1093.040
21571876.000 4558256.000 -1087.717
21573026.000 4557731.000 -2558.478
21570726.000 4558781.000 383.044
21571616.000 4557712.500 -1087.717
21572136.000 4560154.500 404.632
21572292.000 4560251.000 383.794
21571024.000 4559086.500 401.118
21571978.000 4560030.500 429.771
21570850.000 4558915.500 396.992
21570760.000 4558826.500 394.810
21570718.000 4558788.000 396.447
21570494.000 4558320.500 428.072
21569682.000 4556606.500 535.072
21570404.000 4558165.000 455.096
21570832.000 4556081.500 -973.696
21570366.000 4554376.000 -948.100
21569630.000 4556380.500 527.773
21569656.000 4556511.500 536.499
21569496.000 4555896.000 536.864
21569488.000 4555871.500 538.910
21569478.000 4555841.000 540.975
21569444.000 4555737.000 548.124
21569060.000 4554332.500 569.200
21569182.000 4554862.500 586.797
21570210.000 4553807.500 -948.100
21571360.000 4553282.500 -2465.400
21569962.000 4553359.000 -948.100
21568364.000 4553072.000 437.744
21568514.000 4553353.500 472.163
21568312.000 4552975.000 425.892
21568228.000 4552810.500 400.700
21568070.000 4552539.000 380.377
21569218.000 4552013.000 -1088.485
21568070.000 4552537.500 380.253
21569530.000 4550686.000 -2558.990
21568800.000 4551612.000 -1088.485
21568436.000 4551343.000 -1088.485
21567180.000 4550140.000 -898.966
21566408.000 4550917.500 602.182
21566428.000 4550942.000 604.006
21566402.000 4550915.500 601.894
21566286.000 4550839.000 594.697
21566070.000 4550694.500 576.062
21565902.000 4550571.000 545.793
21566042.000 4550676.000 573.673
21565768.000 4550468.500 518.701
21565490.000 4550253.000 457.031
21566874.000 4551395.000 562.132
21566532.000 4551068.500 613.590
21567184.000 4551655.500 480.941
21567384.000 4551833.500 439.958
21567766.000 4552193.000 375.619
21567874.000 4552295.500 358.499
21567962.000 4552403.500 367.601
21568068.000 4552536.500 380.151
21568068.000 4552537.000 380.199
21566724.000 4551271.500 600.870
21566578.000 4551127.000 617.964
21568586.000 4553512.000 505.910
21568892.000 4554067.000 564.442
21568910.000 4554100.000 567.878
21568996.000 4554254.000 581.695
21568948.000 4554170.500 576.189
21569046.000 4554337.500 587.371
21569176.000 4554843.000 588.029
21568958.000 4554190.500 578.523
21569316.000 4555338.500 575.437
21569664.000 4556555.000 539.389
21569674.000 4556604.500 542.713
21569676.000 4556609.000 542.895
21570162.000 4557757.500 535.559
21570284.000 4557961.000 495.367
21569830.000 4557036.000 570.978
21570078.000 4557616.500 563.557
21569852.000 4557113.500 581.865
21569902.000 4557232.000 581.866
21571174.000 4559256.000 425.711
21571574.000 4559683.000 465.443
21571480.000 4559586.500 459.272
21571536.000 4559647.500 466.333
21572314.000 4560264.500 380.834
21574786.000 4562138.500 411.104
21575106.000 4562348.500 380.305
21575126.000 4562366.000 378.617
21572828.000 4560658.000 390.646
21573066.000 4560851.000 407.491
21574428.000 4561913.500 454.815
21572976.000 4560778.500 402.324
21573318.000 4561071.000 440.557
21573912.000 4561537.500 463.753
21573638.000 4561327.000 458.272
21573900.000 4561528.000 463.842
21573416.000 4561157.500 453.552
21573906.000 4561533.500 464.171
21575498.000 4562679.500 344.253
21575814.000 4563011.000 372.390
21576234.000 4563455.000 414.321
21576352.000 4563584.000 430.226
21576528.000 4563776.500 453.888
21576314.000 4563544.500 427.288
21576870.000 4564158.000 504.873
21577894.000 4565299.000 514.124
21577932.000 4565342.500 514.046
21577522.000 4564915.000 566.804
21577320.000 4564665.000 562.042
21578236.000 4565697.000 503.179
21578418.000 4565932.500 514.957
21578554.000 4566115.500 531.231
21578716.000 4566323.000 540.628
21579576.000 4567639.000 606.996
21579882.000 4568276.500 611.584
21579706.000 4567932.500 623.579
21580164.000 4568791.000 548.214
21580168.000 4569021.500 522.347
21580486.000 4569995.500 -33.293
21580532.000 4569990.500 -101.646
21580424.000 4570000.500 54.389
21580174.000 4569304.000 484.016
21580300.000 4570014.000 234.118
21580176.000 4569722.000 442.573
21580178.000 4569931.000 417.656
21580220.000 4570020.500 348.122
21580182.000 4570024.500 403.856
21580790.000 4569907.500 -540.917
21580824.000 4569896.000 -600.736
21580888.000 4569819.500 -709.352
21580894.000 4569812.500 -719.104
21580824.000 4569896.000 -600.764
21581090.000 4569585.500 -1040.476
21581358.000 4569349.000 -1353.454
21581378.000 4569320.500 -1394.910
21581482.000 4569174.000 -1609.474
21581592.000 4569018.000 -1832.407
21566724.000 4546127.000 -5000.000
21566492.000 4545961.500 -5000.000
21565728.000 4546157.000 -4063.152
21566486.000 4545911.000 -5000.000
21565974.000 4546121.000 -4033.725
21565060.000 4546463.000 -2567.450
21566578.000 4545896.000 -5000.000
21565998.000 4545858.000 -4003.969
21565106.000 4545936.000 -2507.938
21566592.000 4545805.500 -5000.000
21566272.000 4545596.500 -3998.133
21565656.000 4545413.500 -2496.267
21566684.000 4545718.500 -5000.000
21566708.000 4545519.000 -4015.751
21566524.000 4545258.000 -2531.501
21566828.000 4545691.500 -5000.000
21566796.000 4545300.000 -5000.000
21566672.000 4545076.000 -4015.751
21566784.000 4545151.000 -5000.000
21567410.000 4544969.000 -4015.751
21566992.000 4544892.000 -2531.501
21567034.000 4545115.000 -5000.000
21567688.000 4545020.500 -5000.000
21567980.000 4544762.500 -4008.414
21568132.000 4544479.000 -2516.829
21567878.000 4544951.500 -5000.000
21567906.000 4544657.500 -5000.000
21567942.000 4544251.000 -5000.000
21568050.000 4543972.500 -4008.414
21567964.000 4543986.000 -5000.000
21568876.000 4543188.500 -4008.414
21568728.000 4543429.000 -2516.829
21568242.000 4543723.500 -5000.000
21568974.000 4543028.500 -5000.000
21570176.000 4542955.500 -4008.414
21569596.000 4543274.000 -2516.829
21569408.000 4542950.000 -5000.000
21570562.000 4542744.000 -5000.000
21571884.000 4542336.000 -4008.414
21570734.000 4542861.000 -2516.829
21571136.000 4542536.000 -5000.000
21572186.000 4542155.000 -5000.000
21572280.234 4542155.000 -4522.675
21572307.594 4542155.000 -4382.980
21572030.000 4542292.000 -3879.815
21570880.000 4542817.000 -2388.230
21572315.953 4542155.000 -4341.365
21572323.031 4542155.000 -4306.107
21569730.000 4543342.000 -896.637
21569584.000 4543386.000 -1025.244
21568434.000 4543911.000 466.341
21569016.000 4543592.500 -1025.244
21568580.000 4543670.000 -1025.244
21568306.000 4543931.500 -1025.244
21568178.000 4543952.000 -2516.829
21568282.000 4544195.000 -1025.244
21566576.000 4544814.500 -1047.251
21567818.000 4544134.500 458.396
21567618.000 4544209.000 445.492
21568260.000 4543973.000 472.636
21568096.000 4544031.500 476.212
21568296.000 4543959.000 476.547
21568444.000 4543904.500 492.790
21568614.000 4543821.000 512.298
21567532.000 4544239.500 447.939
21567266.000 4544336.500 442.031
21567092.000 4544399.000 443.173
21566866.000 4544480.000 446.123
21566158.000 4544737.000 436.998
21566736.000 4544527.000 447.815
21566328.000 4544850.000 -1047.251
21566500.000 4544963.000 -2531.501
21566340.000 4544997.500 -1047.251
21565040.000 4545230.500 -994.400
21564422.000 4545047.500 507.466
21564214.000 4546014.500 -1011.907
21565688.000 4544820.000 460.260
21564904.000 4544956.500 515.024
21565708.000 4544816.500 459.751
21565722.000 4544814.000 459.995
21566158.000 4544732.500 463.953
21566536.000 4544597.500 454.009
21566566.000 4544587.000 453.017
21564520.000 4545028.000 514.610
21564422.000 4545045.500 514.404
21564298.000 4545157.000 524.262
21563788.000 4545646.500 500.964
21563566.000 4545861.500 489.292
21564264.000 4545188.500 527.142
21563618.000 4545810.500 494.666
21563334.000 4546092.000 465.330
21564144.000 4546805.000 -1101.175
21563332.000 4546101.000 465.947
21563228.000 4547146.500 365.100
21563150.000 4547158.000 354.495
21563306.000 4546268.500 464.278
21563238.000 4546938.500 419.593
21563330.000 4546104.500 466.188
21563270.000 4546603.500 455.907
21563226.000 4547146.000 374.427
21563158.000 4547156.500 356.705
21563288.000 4546422.500 463.703
21562942.000 4547186.500 321.746
21562362.000 4547271.000 256.268
21562314.000 4547278.500 255.912
21562242.000 4547289.000 247.393
21562280.000 4547283.500 255.668
21562264.000 4547569.500 255.811
21562286.000 4547767.500 256.137
21562258.000 4547497.000 255.691
21562238.000 4547328.000 257.561
21562236.000 4547286.000 257.809
21562268.000 4547285.000 256.219
21562298.000 4547875.500 254.154
21562546.000 4548131.000 250.572
21562674.000 4548259.500 245.587
21562916.000 4548512.500 245.876
21563132.000 4548751.000 254.748
21563426.000 4549046.000 243.909
21572323.031 4542155.000 -4306.107
21572800.000 4541932.000 -5000.000
21572724.000 4541959.500 -5000.000
21572315.953 4542155.000 -4341.365
21572307.594 4542155.000 -4382.980
21572648.000 4541987.000 -5000.000
21572280.234 4542155.000 -4522.675
21572186.000 4542155.000 -5000.000

POLYGONS 534 2136
3 85 88 86
3 92 95 93
3 361 370 364
3 325 326 332
3 311 310 306
3 260 132 261
3 378 384 379
3 318 341 339
3 11 13 14
3 113 114 110
3 81 80 84
3 221 166 222
3 272 275 274
3 8 10 31
3 266 120 267
3 83 85 84
3 71 155 67
3 166 223 222
3 146 78 143
3 170 166 171
3 158 161 160
3 8 31 37
3 68 155 157
3 232 231 233
3 330 329 325
3 301 300 297
3 337 339 340
3 11 22 12
3 110 116 117
3 114 115 110
3 12 24 26
3 78 81 143
3 126 263 125
3 190 208 207
3 49 51 50
3 42 45 43
3 157 168 68
3 22 25 24
3 18 11 17
3 43 46 47
3 92 93 90
3 270 272 271
3 380 378 23
3 239 240 242
3 279 278 120
3 179 53 57
3 161 230 160
3 72 73 70
3 72 75 73
3 142 81 84
3 346 337 344
3 390 23 391
3 28 30 10
3 41 42 40
3 304 300 301
3 378 382 384
3 47 46 50
3 145 140 248
3 9 10 7
3 144 145 237
3 355 361 363
3 75 76 73
3 63 67 68
3 361 364 363
3 361 360 362
3 337 343 344
3 169 166 170
3 84 86 87
3 196 198 197
3 44 188 190
3 138 132 255
3 374 376 373
3 279 281 278
3 245 243 247
3 176 178 169
3 295 298 294
3 176 215 214
3 341 315 311
3 126 125 123
3 309 306 310
3 102 103 96
3 298 297 294
3 1 0 4
3 44 43 188
3 55 58 56
3 288 27 24
3 264 265 263
3 226 224 227
3 51 52 50
3 320 317 321
3 210 202 201
3 38 39 36
3 116 118 117
3 367 355 366
3 135 93 97
3 355 343 357
3 133 132 131
3 156 162 163
3 189 186 209
3 23 390 389
3 34 31 30
3 143 81 142
3 44 37 40
3 282 121 117
3 151 154 153
3 217 177 218
3 108 109 97
3 283 282 117
3 242 243 244
3 17 11 16
3 157 155 154
3 35 38 36
3 201 202 193
3 355 359 360
3 385 388 382
3 151 147 150
3 308 305 306
3 324 323 321
3 188 47 186
3 250 251 253
3 190 201 193
3 378 380 382
3 383 380 386
3 339 341 340
3 106 97 96
3 98 99 96
3 148 235 238
3 403 20 404
3 52 53 50
3 249 140 250
3 329 328 325
3 190 188 189
3 230 231 232
3 350 335 349
3 272 274 273
3 361 371 370
3 8 37 191
3 78 73 77
3 109 110 97
3 401 20 402
3 303 300 304
3 144 237 236
3 305 303 304
3 176 212 182
3 293 291 294
3 144 140 145
3 319 316 317
3 61 60 63
3 255 132 256
3 144 147 146
3 120 122 119
3 332 331 325
3 342 311 307
3 392 398 399
3 158 151 159
3 343 355 354
3 4 5 6
3 355 367 368
3 337 342 343
3 372 361 373
3 295 294 291
3 49 50 46
3 153 155 71
3 188 43 47
3 0 5 4
3 82 83 80
3 169 170 172
3 151 153 147
3 132 135 134
3 68 67 155
3 103 104 96
3 147 144 148
3 54 53 179
3 79 80 77
3 94 87 90
3 335 336 337
3 61 57 56
3 275 276 274
3 383 385 382
3 128 122 127
3 330 325 331
3 314 313 310
3 159 151 234
3 357 358 359
3 230 161 231
3 380 23 381
3 65 66 63
3 89 90 86
3 326 322 336
3 117 121 120
3 5 8 191
3 340 341 342
3 287 33 29
3 240 243 242
3 89 91 90
3 277 269 120
3 337 338 339
3 396 392 394
3 186 47 54
3 121 280 120
3 151 156 154
3 45 46 43
3 34 35 31
3 132 259 256
3 362 378 377
3 39 41 40
3 176 213 212
3 20 19 21
3 156 158 160
3 189 209 208
3 190 191 44
3 20 23 22
3 104 105 96
3 120 266 124
3 54 179 180
3 131 122 129
3 9 11 12
3 186 187 209
3 168 169 57
3 394 20 395
3 309 308 306
3 107 108 97
3 29 30 28
3 95 98 96
3 362 360 295
3 77 80 81
3 99 100 96
3 356 355 369
3 28 26 29
3 105 106 96
3 220 177 175
3 216 214 215
3 31 36 37
3 136 137 139
3 140 143 142
3 287 29 26
3 0 7 5
3 142 84 87
3 400 20 401
3 238 239 241
3 112 113 110
3 16 11 15
3 299 296 297
3 288 24 289
3 333 331 334
3 13 0 3
3 184 180 183
3 314 310 315
3 234 151 152
3 32 34 30
3 343 354 353
3 351 343 352
3 138 257 258
3 15 11 14
3 323 320 321
3 69 72 70
3 64 65 63
3 261 132 262
3 316 314 315
3 196 5 195
3 59 60 56
3 219 216 215
3 191 37 44
3 0 1 2
3 120 119 117
3 37 36 40
3 66 67 63
3 322 317 318
3 290 288 289
3 162 156 160
3 135 97 111
3 140 141 254
3 381 23 389
3 338 318 339
3 12 22 24
3 7 10 8
3 94 135 132
3 58 59 56
3 132 138 137
3 195 5 194
3 293 290 291
3 202 210 211
3 168 61 68
3 175 169 174
3 149 144 236
3 90 93 94
3 268 267 120
3 262 132 133
3 392 20 394
3 35 36 31
3 325 321 326
3 320 319 317
3 39 40 36
3 45 48 46
3 27 26 24
3 146 74 78
3 78 77 81
3 76 77 73
3 27 287 26
3 5 199 200
3 9 12 28
3 53 56 57
3 349 337 348
3 290 289 291
3 88 89 86
3 228 227 229
3 336 322 338
3 0 11 9
3 123 120 124
3 129 128 130
3 360 359 298
3 335 332 326
3 144 146 143
3 317 315 318
3 337 340 342
3 358 304 301
3 298 301 297
3 392 397 398
3 115 116 110
3 10 30 31
3 380 387 386
3 378 362 292
3 19 11 18
3 55 56 53
3 166 156 165
3 326 336 335
3 40 43 44
3 239 238 235
3 296 294 297
3 32 30 29
3 165 156 164
3 224 226 223
3 100 101 96
3 252 140 254
3 337 336 338
3 292 295 291
3 122 128 129
3 316 315 317
3 190 203 201
3 180 179 178
3 322 318 338
3 20 11 19
3 138 255 257
3 397 392 396
3 306 304 307
3 312 309 310
3 125 122 123
3 206 190 207
3 361 355 360
3 42 43 40
3 136 132 137
3 87 86 90
3 62 63 60
3 190 193 192
3 156 151 158
3 343 345 344
3 190 204 203
3 122 125 127
3 365 355 363
3 191 192 194
3 183 180 181
3 94 93 135
3 321 317 322
3 305 304 306
3 369 355 368
3 140 136 139
3 25 289 24
3 140 142 136
3 264 263 126
3 5 191 194
3 176 175 177
3 140 252 251
3 278 277 120
3 142 87 136
3 239 235 240
3 242 244 246
3 378 379 377
3 166 165 167
3 225 166 167
3 166 169 168
3 343 351 345
3 179 57 169
3 132 260 259
3 190 206 205
3 250 140 251
3 307 358 343
3 176 182 181
3 144 143 140
3 141 140 139
3 355 357 359
3 223 166 224
3 156 157 154
3 168 57 61
3 180 186 54
3 347 346 344
3 79 82 80
3 70 73 74
3 85 86 84
3 5 7 8
3 387 380 381
3 117 119 110
3 307 304 358
3 23 378 25
3 150 147 148
3 358 301 359
3 111 110 119
3 174 169 173
3 134 135 111
3 146 147 74
3 228 226 227
3 176 177 217
3 54 47 50
3 23 392 391
3 299 297 300
3 59 62 60
3 360 298 295
3 280 279 120
3 248 140 249
3 106 107 97
3 286 285 117
3 176 180 178
3 93 96 97
3 199 5 197
3 48 49 46
3 189 188 186
3 176 169 175
3 392 23 20
3 11 20 22
3 118 286 117
3 153 71 147
3 197 5 196
3 270 271 267
3 62 64 63
3 307 311 306
3 224 166 225
3 20 400 395
3 169 172 173
3 132 122 131
3 144 149 148
3 348 337 346
3 186 180 185
3 5 200 6
3 66 69 67
3 178 179 169
3 91 92 90
3 176 217 215
3 378 292 25
3 393 392 399
3 122 132 134
3 153 154 155
3 272 273 271
3 28 10 9
3 95 96 93
3 324 321 325
3 25 292 289
3 164 156 163
3 292 291 289
3 136 87 94
3 20 405 404
3 180 184 185
3 191 190 192
3 302 299 300
3 354 355 356
3 361 374 373
3 97 110 111
3 362 377 374
3 78 74 73
3 166 221 171
3 71 74 147
3 335 337 349
3 23 25 22
3 371 361 372
3 243 245 244
3 362 295 292
3 61 56 60
3 326 321 322
3 50 53 54
3 190 189 208
3 33 32 29
3 152 151 150
3 268 270 267
3 405 20 21
3 71 70 74
3 402 20 403
3 204 190 205
3 122 120 123
3 76 79 77
3 52 55 53
3 341 311 342
3 315 310 311
3 333 330 331
3 327 324 325
3 180 176 181
3 269 268 120
3 318 315 341
3 352 343 353
3 122 111 119
3 380 383 382
3 28 12 26
3 3 0 2
3 366 355 365
3 69 70 67
3 285 284 117
3 101 102 96
3 166 168 157
3 361 362 374
3 284 283 117
3 132 136 94
3 359 301 298
3 11 0 13
3 68 61 63
3 343 342 307
3 187 186 185
3 303 302 300
3 0 9 7
3 148 149 235
3 372 373 375
3 296 293 294
3 392 393 391
3 122 134 111
3 71 67 70
3 213 176 214
3 83 84 80
3 313 312 310
3 343 358 357
3 156 166 157
3 328 327 325
3 109 112 110
3 411 412 410
3 406 407 408
3 408 410 409
3 411 413 412
3 408 411 410
3 406 408 409

POINT_DATA 414
COLOR_SCALARS GocadColor 4
1 0 0 0.5
1 0 0 0.5
1 0 0 0.5
1 0 0 0.5
1 0 0 0.5
1 0 0 0.5
1 0 0 0.5
1 0 0 0.5
1 0 0 0.5
1 0 0 0.5
1 0 0 0.5
1 0 0 0.5
1 0 0 0.5
1 0 0 0.5
1 0 0 0.5
1 0 0 0.5
1 0 0 0.5
1 0 0 0.5
1 0 0 0.5
1 0 0 0.5
1 0 0 0.5
1 0 0 0.5
1 0 0 0.5
1 0 0 0.5
1 0 0 0.5
1 0 0 0.5
1 0 0 0.5
1 0 0 0.5
1 0 0 0.5
1 0 0 0.5
1 0 0 0.5
1 0 0 0.5
1 0 0 0.5
1 0 0 0.5
1 0 0 0.5
1 0 0 0.5
1 0 0 0.5
1 0 0 0.5
1 0 0 0.5
1 0 0 0.5
1 0 0 0.5
1 0 0 0.5
1 0 0 0.5
1 0 0 0.5
1 0 0 0.5
1 0 0 0.5
1 0 0 0.5
1 0 0 0.5
1 0 0 0.5
1 0 0 0.5
1 0 0 0.5
1 0 0 0.5
1 0 0 0.5
1 0 0 0.5
1 0 0 0.5
1 0 0 0.5
1 0 0 0.5
1 0 0 0.5
1 0 0 0.5
1 0 0 0.5
1 0 0 0.5
1 0 0 0.5
1 0 0 0.5
1 0 0 0.5
1 0 0 0.5
1 0 0 0.5
1 0 0 0.5
1 0 0 0.5
1 0 0 0.5
1 0 0 0.5
1 0 0 0.5
1 0 0 0.5
1 0 0 0.5
1 0 0 0.5
1 0 0 0.5
1 0 0 0.5
1 0 0 0.5
1 0 0 0.5
1 0 0 0.5
1 0 0 0.5
1 0 0 0.5
1 0 0 0.5
1 0 0 0.5
1 0 0 0.5
1 0 0 0.5
1 0 0 0.5
1 0 0 0.5
1 0 0 0.5
1 0 0 0.5
1 0 0 0.5
1 0 0 0.5
1 0 0 0.5
1 0 0 0.5
1 0 0 0.5
1 0 0 0.5
1 0 0 0.5
1 0 0 0.5
1 0 0 0.5
1 0 0 0.5
1 0 0 0.5
1 0 0 0.5
1 0 0 0.5
1 0 0 0.5
1 0 0 0.5
1 0 0 0.5
1 0 0 0.5
1 0 0 0.5
1 0 0 0.5
1 0 0 0.5
1 0 0 0.5
1 0 0 0.5
1 0 0 0.5
1 0 0 0.5
1 0 0 0.5
1 0 0 0.5
1 0 0 0.5
1 0 0 0.5
1 0 0 0.5
1 0 0 0.5
1 0 0 0.5
1 0 0 0.5
1 0 0 0.5
1 0 0 0.5
1 0 0 0.5
1 0 0 0.5
1 0 0 0.5
1 0 0 0.5
1 0 0 0.5
1 0 0 0.5
1 0 0 0.5
1 0 0 0.5
1 0 0 0.5
1 0 0 0.5
1 0 0 0.5
1 0 0 0.5
1 0 0 0.5
1 0 0 0.5
1 0 0 0.5
1 0 0 0.5
1 0 0 0.5
1 0 0 0.5
1 0 0 0.5
1 0 0 0.5
1 0 0 0.5
1 0 0 0.5
1 0 0 0.5
1 0 0 0.5
1 0 0 0.5
1 0 0 0.5
1 0 0 0.5
1 0 0 0.5
1 0 0 0.5
1 0 0 0.5
1 0 0 0.5
1 0 0 0.5
1 0 0 0.5
1 0 0 0.5
1 0 0 0.5
1 0 0 0.5
1 0 0 0.5
1 0 0 0.5
1 0 0 0.5
1 0 0 0.5
1 0 0 0.5
1 0 0 0.5
1 0 0 0.5
1 0 0 0.5
1 0 0 0.5
1 0 0 0.5
1 0 0 0.5
1 0 0 0.5
1 0 0 0.5
1 0 0 0.5
1 0 0 0.5
1 0 0 0.5
1 0 0 0.5
1 0 0 0.5
1 0 0 0.5
1 0 0 0.5
1 0 0 0.5
1 0 0 0.5
1 0 0 0.5
1 0 0 0.5
1 0 0 0.5
1 0 0 0.5
1 0 0 0.5
1 0 0 0.5
1 0 0 0.5
1 0 0 0.5
1 0 0 0.5
1 0 0 0.5
1 0 0 0.5
1 0 0 0.5
1 0 0 0.5
1 0 0 0.5
1 0 0 0.5
1 0 0 0.5
1 0 0 0.5
1 0 0 0.5
1 0 0 0.5
1 0 0 0.5
1 0 0 0.5
1 0 0 0.5
1 0 0 0.5
1 0 0 0.5
1 0 0 0.5
1 0 0 0.5
1 0 0 0.5
1 0 0 0.5
1 0 0 0.5
1 0 0 0.5
1 0 0 0.5
1 0 0 0.5
1 0 0 0.5
1 0 0 0.5
1 0 0 0.5
1 0 0 0.5
1 0 0 0.5
1 0 0 0.5
1 0 0 0.5
1 0 0 0.5
1 0 0 0.5
1 0 0 0.5
1 0 0 0.5
1 0 0 0.5
1 0 0 0.5
1 0 0 0.5
1 0 0 0.5
1 0 0 0.5
1 0 0 0.5
1 0 0 0.5
1 0 0 0.5
1 0 0 0.5
1 0 0 0.5
1 0 0 0.5
1 0 0 0.5
1 0 0 0.5
1 0 0 0.5
1 0 0 0.5
1 0 0 0.5
1 0 0 0.5
1 0 0 0.5
1 0 0 0.5
1 0 0 0.5
1 0 0 0.5
1 0 0 0.5
1 0 0 0.5
1 0 0 0.5
1 0 0 0.5
1 0 0 0.5
1 0 0 0.5
1 0 0 0.5
1 0 0 0.5
1 0 0 0.5
1 0 0 0.5
1 0 0 0.5
1 0 0 0.5
1 0 0 0.5
1 0 0 0.5
1 0 0 0.5
1 0 0 0.5
1 0 0 0.5
1 0 0 0.5
1 0 0 0.5
1 0 0 0.5
1 0 0 0.5
1 0 0 0.5
1 0 0 0.5
1 0 0 0.5
1 0 0 0.5
1 0 0 0.5
1 0 0 0.5
1 0 0 0.5
1 0 0 0.5
1 0 0 0.5
1 0 0 0.5
1 0 0 0.5
1 0 0 0.5
1 0 0 0.5
1 0 0 0.5
1 0 0 0.5
1 0 0 0.5
1 0 0 0.5
1 0 0 0.5
1 0 0 0.5
1 0 0 0.5
1 0 0 0.5
1 0 0 0.5
1 0 0 0.5
1 0 0 0.5
1 0 0 0.5
1 0 0 0.5
1 0 0 0.5
1 0 0 0.5
1 0 0 0.5
1 0 0 0.5
1 0 0 0.5
1 0 0 0.5
1 0 0 0.5
1 0 0 0.5
1 0 0 0.5
1 0 0 0.5
1 0 0 0.5
1 0 0 0.5
1 0 0 0.5
1 0 0 0.5
1 0 0 0.5
1 0 0 0.5
1 0 0 0.5
1 0 0 0.5
1 0 0 0.5
1 0 0 0.5
1 0 0 0.5
1 0 0 0.5
1 0 0 0.5
1 0 0 0.5
1 0 0 0.5
1 0 0 0.5
1 0 0 0.5
1 0 0 0.5
1 0 0 0.5
1 0 0 0.5
1 0 0 0.5
1 0 0 0.5
1 0 0 0.5
1 0 0 0.5
1 0 0 0.5
1 0 0 0.5
1 0 0 0.5
1 0 0 0.5
1 0 0 0.5
1 0 0 0.5
1 0 0 0.5
1 0 0 0.5
1 0 0 0.5
1 0 0 0.5
1 0 0 0.5
1 0 0 0.5
1 0 0 0.5
1 0 0 0.5
1 0 0 0.5
1 0 0 0.5
1 0 0 0.5
1 0 0 0.5
1 0 0 0.5
1 0 0 0.5
1 0 0 0.5
1 0 0 0.5
1 0 0 0.5
1 0 0 0.5
1 0 0 0.5
1 0 0 0.5
1 0 0 0.5
1 0 0 0.5
1 0 0 0.5
1 0 0 0.5
1 0 0 0.5
1 0 0 0.5
1 0 0 0.5
1 0 0 0.5
1 0 0 0.5
1 0 0 0.5
1 0 0 0.5
1 0 0 0.5
1 0 0 0.5
1 0 0 0.5
1 0 0 0.5
1 0 0 0.5
1 0 0 0.5
1 0 0 0.5
1 0 0 0.5
1 0 0 0.5
1 0 0 0.5
1 0 0 0.5
1 0 0 0.5
1 0 0 0.5
1 0 0 0.5
1 0 0 0.5
1 0 0 0.5
1 0 0 0.5
1 0 0 0.5
1 0 0 0.5
1 0 0 0.5
1 0 0 0.5
1 0 0 0.5
1 0 0 0.5
1 0 0 0.5
1 0 0 0.5
1 0 0 0.5
1 0 0 0.5
1 0 0 0.5
1 0 0 0.5
1 0 0 0.5
1 0 0 0.5
1 0 0 0.5
1 0 0 0.5
1 0 0 0.5
1 0 0 0.5
1 0 0 0.5
1 0 0 0.5
1 0 0 0.5
1 0 0 0.5
1 0 0 0.5
1 0 0 0.5
1 0 0 0.5
1 0 0 0.5
1 0 0 0.5
1 0 0 0.5
1 0 0 0.5
1 0 0 0.5
1 0 0 0.5
1 0 0 0.5
1 0 0 0.5
1 0 0 0.5

