# vtk DataFile Version 3.0
Gocad TSurf to VTK
ASCII
DATASET POLYDATA
POINTS 394 float
21558354.000 4581570.500 -1214.463
21559254.000 4581720.500 214.049
21558352.000 4582006.000 -1214.463
21559248.000 4581860.000 208.989
21557454.000 4581420.500 -2642.975
21558154.000 4580055.500 -1159.043
21557320.000 4580410.500 -2606.029
21558988.000 4579700.500 287.942
21558088.000 4579550.500 -1159.043
21559238.000 4581570.000 224.107
21559212.000 4581353.500 238.528
21559256.000 4581720.500 215.895
21559254.000 4581745.000 214.689
21559182.000 4581027.500 270.546
21559170.000 4580877.500 287.499
21559130.000 4580464.500 324.386
21559028.000 4579881.000 307.121
21559010.000 4579774.000 305.782
21559128.000 4580461.500 324.674
21558996.000 4579700.000 300.353
21558986.000 4579623.000 294.503
21558986.000 4579619.500 294.229
21558970.000 4579495.000 286.196
21558924.000 4579116.500 261.842
21558888.000 4578811.500 241.264
21558864.000 4578537.500 239.733
21558836.000 4578145.500 243.746
21558826.000 4578002.500 246.298
21558818.000 4577921.500 244.507
21557972.000 4578192.000 -1170.568
21557188.000 4579400.500 -2606.029
21558814.000 4577895.000 243.917
21557932.000 4577739.000 -1170.568
21557032.000 4577589.000 -2613.712
21558814.000 4577886.000 243.722
21557998.000 4577468.000 -1170.568
21558816.000 4577880.500 243.478
21558820.000 4577866.000 242.775
21558948.000 4577369.500 218.867
21558988.000 4577234.500 217.641
21559018.000 4577120.000 213.245
21559094.000 4576805.000 188.948
21558194.000 4576655.000 -1233.289
21559086.000 4576868.000 203.587
21559102.000 4576804.000 201.196
21559084.000 4576769.500 202.654
21559028.000 4576667.000 203.155
21558910.000 4576449.000 203.992
21558890.000 4576415.000 202.106
21558842.000 4576333.500 197.578
21558680.000 4576047.500 183.899
21558530.000 4575773.000 181.023
21558350.000 4575463.500 163.186
21558144.000 4575049.000 192.842
21558092.000 4574948.500 197.456
21557798.000 4574357.000 248.102
21557768.000 4574295.000 253.199
21557196.000 4574746.500 -1168.904
21557294.000 4576505.000 -2655.526
21557756.000 4574271.000 255.146
21557754.000 4574267.000 255.535
21556932.000 4573939.500 -1186.358
21556452.000 4574695.000 -2624.239
21557752.000 4574256.500 256.051
21557738.000 4574216.500 255.971
21557754.000 4574263.500 255.823
21557752.000 4574257.000 256.052
21557518.000 4573515.000 254.070
21557466.000 4573359.500 248.857
21557404.000 4573196.000 229.294
21556600.000 4573303.500 -1186.358
21555788.000 4573422.500 -2624.239
21557398.000 4573186.500 228.053
21556512.000 4573034.500 -1186.358
21557396.000 4573182.000 227.516
21556678.000 4572988.000 -1186.358
21555944.000 4572792.000 -2624.239
21557400.000 4573181.000 227.532
21557014.000 4572735.000 -1186.358
21556616.000 4572285.000 -2624.239
21557406.000 4573177.000 227.267
21557512.000 4572595.500 -1223.692
21556948.000 4572192.000 -2649.128
21557414.000 4573175.000 227.340
21557580.000 4573134.000 228.793
21557842.000 4573060.000 207.391
21558074.000 4572997.500 196.967
21557676.000 4572338.000 -1223.692
21558074.000 4572997.000 196.919
21557772.000 4572271.000 -1223.692
21557274.000 4571677.000 -2649.128
21558074.000 4572996.500 196.900
21558424.000 4572729.000 175.640
21558486.000 4572680.000 170.894
21558522.000 4572653.500 169.671
21559176.000 4572165.000 153.330
21559200.000 4572147.500 152.654
21559304.000 4572071.000 151.463
21559420.000 4571985.500 149.520
21558780.000 4571510.500 -1262.322
21557468.000 4571542.500 -2649.128
21559420.000 4571985.500 149.511
21559270.000 4570737.500 -1269.736
21559270.000 4570744.500 -1840.247
21559420.000 4571985.000 149.504
21559428.000 4571974.500 149.307
21559826.000 4570847.000 -398.106
21559826.000 4570846.000 -399.189
21559826.000 4571001.000 -249.204
21559826.000 4571002.000 -248.239
21559826.000 4571357.500 98.192
21559826.000 4571001.500 -248.663
21559826.000 4571357.500 98.197
21559514.000 4571848.000 146.967
21559826.000 4571361.500 102.495
21559826.000 4571361.500 102.518
21559626.000 4571682.500 143.162
21559824.000 4571365.500 107.375
21559824.000 4571368.000 109.833
21559656.000 4571638.000 143.508
21559824.000 4571370.000 112.204
21559824.000 4571371.000 113.390
21559822.000 4571395.000 138.670
21559822.000 4571396.000 139.755
21559822.000 4571396.500 140.154
21559822.000 4571398.500 141.688
21559844.000 4570800.000 -460.906
21559856.000 4570772.500 -498.357
21559868.000 4570744.000 -537.239
21559878.000 4570720.000 -569.604
21559750.000 4570490.500 -1151.248
21559700.000 4570499.000 -1196.342
21559750.000 4570490.500 -1151.216
21559750.000 4570490.500 -1151.123
21559824.000 4570475.000 -1090.332
21559892.000 4570690.000 -609.437
21559824.000 4570475.000 -1090.328
21559912.000 4570646.500 -666.127
21559824.000 4570475.000 -1090.273
21559824.000 4570475.000 -1090.321
21559876.000 4570464.500 -1048.327
21559876.000 4570464.500 -1048.046
21559884.000 4570463.500 -1042.748
21559884.000 4570463.000 -1041.874
21559884.000 4570463.000 -1041.732
21559958.000 4570544.500 -800.924
21559916.000 4570458.500 -1012.011
21559930.000 4570456.500 -998.019
21559946.000 4570454.000 -983.191
21559964.000 4570451.000 -965.887
21560002.000 4570446.000 -930.530
21560002.000 4570445.500 -930.679
21559958.000 4570543.500 -802.054
21559958.000 4570544.500 -800.924
21560002.000 4570445.500 -930.423
21560088.000 4570433.000 -851.172
21559958.000 4570544.500 -800.914
21559912.000 4570646.000 -666.506
21559576.000 4570519.500 -1307.144
21559456.000 4570531.500 -1403.134
21559388.000 4570554.000 -1481.017
21559346.000 4570622.500 -1610.779
21559270.000 4570744.500 -1840.526
21559004.000 4570786.500 -2075.457
21558808.000 4570817.500 -2249.438
21558140.000 4571036.000 -2674.881
21558468.000 4570834.000 -2604.152
21557788.000 4570932.500 -3394.508
21557788.000 4570933.000 -3395.354
21558128.000 4570882.000 -2998.177
21558142.000 4570877.500 -2979.202
21558188.000 4570861.500 -2912.486
21558258.000 4570855.000 -2836.330
21558294.000 4570852.000 -2798.028
21558372.000 4570839.000 -2705.333
21558436.000 4570835.500 -2637.791
21557788.000 4570933.000 -3396.092
21557718.000 4570950.000 -3462.271
21556904.000 4571010.500 -4056.718
21556904.000 4571010.500 -4056.981
21556902.000 4571010.500 -4057.603
21556872.000 4571015.500 -4074.564
21556876.000 4571012.000 -4076.462
21556384.000 4571789.000 -4074.564
21556838.000 4571027.000 -4119.364
21556422.000 4571220.500 -4632.265
21556870.000 4571012.500 -4080.811
21556872.000 4571012.500 -4079.998
21556018.000 4571527.000 -5000.000
21556124.000 4571359.000 -5000.000
21556008.000 4571529.500 -5000.000
21556008.000 4571529.500 -5000.000
21555970.000 4571539.000 -5000.000
21556218.000 4571835.000 -4062.119
21555970.000 4571539.000 -5000.000
21555962.000 4571540.500 -5000.000
21555958.000 4571542.000 -5000.000
21555726.000 4571717.000 -5000.000
21555210.000 4572595.500 -4062.119
21555634.000 4571787.000 -5000.000
21555608.000 4571806.500 -5000.000
21555608.000 4571806.500 -5000.000
21554732.000 4572467.500 -5000.000
21554712.000 4572734.500 -4062.119
21555612.000 4572884.500 -2624.239
21554558.000 4572515.500 -5000.000
21554124.000 4572636.500 -5000.000
21554354.000 4573338.500 -5000.000
21554974.000 4573541.500 -4062.119
21554444.000 4573619.000 -5000.000
21555974.000 4575450.000 -4062.119
21554792.000 4574283.000 -5000.000
21555660.000 4575942.500 -5000.000
21556060.000 4575719.000 -4056.302
21556628.000 4575233.000 -2612.603
21555690.000 4576036.500 -5000.000
21555810.000 4576257.500 -5000.000
21556394.000 4576355.000 -4077.763
21556328.000 4576626.000 -4056.856
21555782.000 4576351.000 -5000.000
21555612.000 4577059.500 -5000.000
21556132.000 4577439.000 -4056.856
21557164.000 4577047.000 -2613.712
21555544.000 4577341.000 -5000.000
21556248.000 4578797.500 -4056.856
21557110.000 4578495.000 -2613.712
21555584.000 4577811.500 -5000.000
21555686.000 4578995.500 -5000.000
21556288.000 4579250.500 -4053.015
21555698.000 4579152.500 -5000.000
21555890.000 4580434.000 -5000.000
21556488.000 4580765.500 -4053.015
21555952.000 4580911.500 -5000.000
21555978.000 4581072.000 -5000.000
21556554.000 4581270.500 -4071.488
21556546.000 4582578.000 -4071.488
21557448.000 4582292.000 -2642.975
21555974.000 4581490.000 -5000.000
21555954.000 4582133.500 -5000.000
21555938.000 4582647.500 -5000.000
21555936.000 4582724.000 -5000.000
21555936.000 4582747.000 -5000.000
21556544.000 4583013.500 -4060.019
21557444.000 4583163.500 -2620.038
21555936.000 4582787.000 -5000.000
21555910.000 4582964.000 -5000.000
21556020.000 4583564.500 -4714.774
21556326.000 4584571.500 -4060.019
21557300.000 4584202.000 -2620.038
21556078.000 4583879.500 -4564.982
21556218.000 4584613.000 -4221.237
21556260.000 4584869.500 -4094.776
21556278.000 4584923.000 -4056.891
21557154.000 4585241.000 -2610.789
21556286.000 4584950.000 -4037.757
21556334.000 4585104.000 -3928.266
21556418.000 4585462.500 -3643.118
21556516.000 4585879.500 -3310.367
21556872.000 4586167.000 -2639.865
21558054.000 4585391.000 -1166.184
21556542.000 4585993.000 -3219.094
21556596.000 4586128.000 -3075.322
21556666.000 4586303.000 -2889.899
21556754.000 4586525.000 -2654.032
21556760.000 4586538.500 -2639.865
21556842.000 4586746.000 -2419.896
21557632.000 4586780.500 -1209.798
21556940.000 4586989.000 -2162.077
21556980.000 4587088.500 -2056.210
21557492.000 4587243.500 -1209.798
21558392.000 4587393.500 220.270
21557004.000 4587162.000 -1985.705
21557242.000 4587591.500 -1675.715
21557556.000 4587832.000 -1209.798
21557292.000 4587680.000 -1611.662
21557416.000 4587905.500 -1449.397
21557580.000 4588194.000 -1245.506
21557586.000 4588215.000 -1240.026
21557606.000 4588287.500 -1221.031
21558650.000 4589747.500 160.883
21558648.000 4589745.500 160.898
21557698.000 4588604.500 -1138.268
21557810.000 4589356.500 -1108.417
21557812.000 4589364.000 -1108.097
21557814.000 4589382.000 -1107.464
21557818.000 4589407.500 -1106.390
21557824.000 4589448.500 -1104.858
21557844.000 4589613.000 -1105.319
21557844.000 4589613.500 -1105.315
21558650.000 4589748.000 160.876
21557854.000 4589749.000 -1094.493
21557838.000 4590127.500 -1127.264
21557832.000 4590240.000 -1141.536
21557828.000 4590291.000 -1147.995
21557826.000 4590313.000 -1150.770
21558652.000 4590039.500 158.038
21557826.000 4590316.500 -1151.308
21558654.000 4590088.500 157.749
21557826.000 4590335.000 -1153.629
21558656.000 4590340.500 154.198
21557824.000 4590350.500 -1155.608
21558658.000 4590562.500 151.093
21557824.000 4590353.000 -1155.938
21558658.000 4590604.000 150.934
21557822.000 4590380.500 -1159.495
21558666.000 4591020.000 149.460
21557822.000 4590402.000 -1162.280
21558672.000 4591375.500 148.905
21557820.000 4590419.000 -1164.397
21558676.000 4591662.000 147.757
21557820.000 4590430.000 -1165.836
21558680.000 4591860.000 147.565
21557818.000 4590463.000 -1170.141
21558692.000 4592503.000 147.762
21557816.000 4590470.500 -1171.069
21558694.000 4592654.500 147.653
21557816.000 4590472.500 -1171.280
21558694.000 4592692.000 147.579
21557816.000 4590472.500 -1171.300
21558694.000 4592695.500 147.573
21557792.000 4590874.000 -1222.782
21557774.000 4591139.000 -1256.764
21557796.000 4592545.500 -1262.779
21558694.000 4592697.000 147.568
21557754.000 4591476.000 -1299.929
21557750.000 4591527.000 -1306.473
21557746.000 4591573.500 -1315.025
21557712.000 4591915.000 -1377.582
21557648.000 4592267.500 -1488.072
21557646.000 4592280.500 -1492.168
21557614.000 4592448.500 -1545.618
21557604.000 4592513.500 -1564.420
21557540.000 4592688.500 -1567.677
21557188.000 4593655.500 -1585.072
21557348.000 4593774.500 -1286.382
21557152.000 4593752.000 -1585.958
21557124.000 4593830.000 -1586.578
21557054.000 4594018.500 -1588.400
21557200.000 4594184.000 -1286.382
21558100.000 4594334.000 118.157
21556982.000 4594147.500 -1627.439
21556962.000 4594182.000 -1637.875
21556954.000 4594194.500 -1641.521
21557142.000 4594375.000 -1269.795
21556878.000 4594330.500 -1682.717
21558100.000 4594337.500 120.850
21558110.000 4594313.000 121.120
21558050.000 4594479.500 119.282
21558112.000 4594308.500 121.282
21558136.000 4594244.000 123.689
21558158.000 4594182.000 125.594
21558312.000 4593773.500 140.476
21558448.000 4593391.000 144.885
21558572.000 4593045.500 146.637
21558650.000 4592820.000 147.240
21558494.000 4593267.000 146.598
21558624.000 4589531.500 162.709
21558598.000 4589295.000 169.187
21558568.000 4589000.500 180.654
21558456.000 4587962.000 209.702
21558398.000 4587394.000 228.931
21558458.000 4587969.000 209.632
21558550.000 4588812.000 187.983
21558458.000 4587975.500 209.579
21558536.000 4588677.000 193.158
21558450.000 4587218.500 232.298
21558950.000 4585552.500 278.055
21558642.000 4586620.500 269.546
21558714.000 4586386.500 278.092
21558684.000 4586492.000 275.926
21558890.000 4585780.500 284.545
21558948.000 4585563.500 278.632
21558954.000 4585542.000 277.476
21558954.000 4585541.000 277.429
21558272.000 4583833.000 -1180.057
21558954.000 4585540.000 277.382
21559014.000 4585037.000 256.128
21559038.000 4584830.000 247.791
21559060.000 4584674.000 247.414
21559142.000 4584160.000 259.007
21559170.000 4583987.000 264.586
21559244.000 4583463.500 259.925
21558344.000 4583313.500 -1180.057
21559212.000 4583734.500 272.731
21559236.000 4583543.500 267.045
21559246.000 4583463.500 264.678
21559248.000 4583417.500 263.178
21559248.000 4583395.000 262.438
21559244.000 4583314.000 255.989
21559234.000 4582903.500 223.320
21559232.000 4582815.500 218.826
21559230.000 4582343.000 196.805
21559230.000 4582333.500 196.418
21559230.000 4582332.500 196.445

POLYGONS 466 1864
3 82 78 79
3 360 359 270
3 373 259 374
3 330 329 322
3 215 212 213
3 238 237 235
3 195 194 193
3 325 324 322
3 176 100 177
3 340 337 338
3 6 4 231
3 33 35 32
3 233 231 234
3 72 69 70
3 230 228 231
3 212 210 213
3 27 26 8
3 42 35 222
3 182 181 187
3 327 326 322
3 216 215 213
3 104 101 102
3 242 243 248
3 378 377 374
3 13 10 7
3 19 17 7
3 331 330 322
3 227 224 228
3 99 164 163
3 313 312 311
3 143 137 142
3 198 76 204
3 236 243 235
3 16 15 7
3 90 100 89
3 290 288 289
3 387 386 381
3 135 129 134
3 291 290 289
3 99 89 100
3 193 192 183
3 63 66 65
3 353 352 339
3 191 190 183
3 208 203 204
3 243 382 374
3 76 75 73
3 82 87 81
3 349 348 339
3 82 79 183
3 67 64 61
3 277 276 273
3 33 32 29
3 305 304 303
3 227 226 224
3 361 363 362
3 380 379 374
3 6 30 8
3 190 188 183
3 40 35 41
3 63 60 61
3 64 63 61
3 183 79 193
3 95 94 89
3 6 8 5
3 10 9 7
3 123 124 119
3 271 268 269
3 288 287 279
3 285 284 279
3 363 364 362
3 241 235 242
3 237 233 235
3 81 78 82
3 334 333 322
3 216 217 218
3 267 265 266
3 323 334 322
3 223 220 221
3 315 314 313
3 322 321 319
3 26 25 8
3 372 266 259
3 43 40 41
3 372 366 266
3 162 99 163
3 112 114 113
3 334 339 338
3 98 97 89
3 102 161 160
3 6 0 4
3 217 58 218
3 366 365 270
3 102 160 159
3 31 28 29
3 52 51 42
3 244 241 242
3 268 266 269
3 56 55 42
3 121 119 120
3 150 149 151
3 304 302 303
3 107 106 102
3 224 221 225
3 198 197 193
3 141 137 140
3 230 229 228
3 283 282 279
3 233 234 235
3 49 41 42
3 34 32 35
3 3 2 1
3 12 3 1
3 299 298 297
3 358 357 273
3 77 74 75
3 154 152 151
3 209 207 208
3 310 308 309
3 83 80 81
3 208 71 62
3 204 76 73
3 336 335 334
3 92 91 89
3 289 288 279
3 241 240 235
3 145 137 144
3 317 316 315
3 201 200 198
3 7 1 5
3 275 274 273
3 2 382 236
3 382 381 374
3 122 123 119
3 265 258 266
3 93 92 89
3 307 306 305
3 15 14 7
3 242 246 245
3 181 100 90
3 188 189 185
3 229 227 228
3 203 198 204
3 178 100 179
3 165 171 172
3 303 302 301
3 40 39 35
3 292 291 289
3 287 286 279
3 165 173 174
3 384 383 381
3 54 53 42
3 202 201 198
3 278 277 273
3 220 219 218
3 256 255 253
3 341 340 338
3 259 266 258
3 262 261 258
3 226 223 224
3 193 79 76
3 343 338 339
3 236 382 243
3 165 99 100
3 80 77 78
3 2 381 382
3 248 259 253
3 85 84 81
3 253 252 247
3 374 259 248
3 358 273 270
3 109 110 105
3 216 213 217
3 366 368 367
3 56 42 57
3 96 95 89
3 169 165 167
3 68 67 61
3 88 87 89
3 258 257 253
3 211 209 210
3 357 356 273
3 342 338 343
3 231 228 30
3 60 57 61
3 354 353 339
3 272 271 269
3 146 145 144
3 321 320 319
3 124 125 119
3 247 242 248
3 205 202 203
3 351 350 339
3 24 23 8
3 246 242 247
3 48 47 41
3 248 243 374
3 302 300 301
3 14 13 7
3 186 181 184
3 225 33 29
3 165 170 171
3 233 232 231
3 148 145 147
3 224 225 228
3 58 42 222
3 137 141 142
3 293 292 289
3 5 0 6
3 128 127 102
3 393 392 2
3 346 345 339
3 170 165 169
3 22 7 8
3 196 195 193
3 80 78 81
3 62 214 210
3 235 243 242
3 173 165 172
3 219 216 218
3 175 165 174
3 115 116 113
3 239 238 235
3 154 151 155
3 207 206 203
3 28 27 8
3 392 391 2
3 296 294 295
3 71 70 61
3 207 203 208
3 274 272 273
3 158 102 159
3 69 61 70
3 337 336 334
3 266 270 269
3 91 88 89
3 0 1 2
3 108 109 105
3 345 347 343
3 319 318 317
3 208 204 71
3 137 143 144
3 36 34 35
3 314 312 313
3 101 99 102
3 240 239 235
3 377 376 374
3 77 75 78
3 179 100 180
3 59 56 57
3 168 100 176
3 71 73 70
3 114 115 113
3 263 262 258
3 165 166 164
3 79 78 75
3 152 153 150
3 268 267 266
3 161 102 103
3 212 211 210
3 167 100 168
3 4 0 2
3 281 278 279
3 185 184 183
3 121 122 119
3 214 57 58
3 255 254 253
3 129 133 134
3 183 188 185
3 316 314 315
3 328 327 322
3 366 370 368
3 165 100 167
3 90 89 87
3 206 205 203
3 244 242 245
3 62 71 61
3 8 7 5
3 209 208 210
3 55 54 42
3 44 43 41
3 20 19 7
3 383 380 381
3 359 361 358
3 88 86 87
3 282 281 279
3 11 12 1
3 320 318 319
3 63 65 60
3 254 252 253
3 225 30 228
3 198 193 76
3 72 70 73
3 3 393 2
3 17 16 7
3 175 166 165
3 361 362 358
3 98 89 99
3 22 21 7
3 82 90 87
3 261 260 258
3 294 293 289
3 94 93 89
3 388 381 2
3 235 234 236
3 84 83 81
3 181 182 180
3 306 304 305
3 112 113 105
3 108 111 109
3 386 385 381
3 260 257 258
3 253 259 258
3 286 285 279
3 129 128 102
3 323 354 334
3 352 351 339
3 348 346 339
3 71 204 73
3 220 218 221
3 183 181 90
3 312 310 311
3 137 136 138
3 353 355 352
3 380 374 381
3 269 270 273
3 47 46 41
3 365 360 270
3 280 279 273
3 140 137 138
3 69 68 61
3 194 192 193
3 116 118 119
3 177 100 178
3 38 37 35
3 181 186 187
3 354 339 334
3 221 218 222
3 21 20 7
3 379 378 374
3 106 108 105
3 376 375 374
3 9 11 1
3 388 387 381
3 373 372 259
3 39 38 35
3 366 270 266
3 300 298 299
3 86 81 87
3 257 256 253
3 192 191 183
3 46 45 41
3 333 332 322
3 102 99 103
3 100 181 180
3 53 52 42
3 225 29 30
3 350 349 339
3 200 199 198
3 298 296 297
3 231 30 6
3 130 102 131
3 37 36 35
3 278 273 279
3 342 343 344
3 249 246 247
3 221 222 33
3 99 165 164
3 335 333 334
3 301 300 299
3 129 102 130
3 326 325 322
3 324 321 322
3 276 275 273
3 251 250 247
3 309 308 307
3 9 1 7
3 385 384 381
3 57 42 58
3 60 59 57
3 45 44 41
3 42 41 35
3 366 371 370
3 102 127 126
3 86 85 81
3 107 102 126
3 345 343 339
3 23 22 8
3 106 105 102
3 389 388 2
3 101 98 99
3 51 50 42
3 74 73 75
3 31 29 32
3 284 283 279
3 329 328 322
3 342 341 338
3 332 331 322
3 210 208 62
3 49 48 41
3 295 294 289
3 150 145 149
3 250 249 247
3 356 280 273
3 117 118 116
3 210 214 213
3 129 130 132
3 16 18 15
3 183 90 82
3 133 129 132
3 223 221 224
3 214 58 217
3 115 117 116
3 135 134 136
3 390 389 2
3 146 147 145
3 375 373 374
3 199 197 198
3 137 135 136
3 181 183 184
3 236 4 2
3 319 323 322
3 5 1 0
3 58 222 218
3 102 158 131
3 265 264 258
3 359 358 270
3 311 310 309
3 29 8 30
3 197 196 193
3 103 99 162
3 119 118 120
3 232 230 231
3 297 296 295
3 62 57 214
3 152 156 153
3 368 369 367
3 202 198 203
3 50 49 42
3 76 79 75
3 138 136 139
3 25 24 8
3 248 253 247
3 105 104 102
3 337 334 338
3 110 112 105
3 213 214 217
3 318 316 317
3 231 4 234
3 156 157 153
3 33 222 35
3 221 33 225
3 234 4 236
3 97 96 89
3 28 8 29
3 272 269 273
3 391 390 2
3 264 263 258
3 366 367 365
3 252 251 247
3 145 148 149
3 308 306 307
3 61 57 62
3 74 72 73
3 151 152 150
3 34 31 32

POINT_DATA 394
COLOR_SCALARS GocadColor 4
1 0 0 0.5
1 0 0 0.5
1 0 0 0.5
1 0 0 0.5
1 0 0 0.5
1 0 0 0.5
1 0 0 0.5
1 0 0 0.5
1 0 0 0.5
1 0 0 0.5
1 0 0 0.5
1 0 0 0.5
1 0 0 0.5
1 0 0 0.5
1 0 0 0.5
1 0 0 0.5
1 0 0 0.5
1 0 0 0.5
1 0 0 0.5
1 0 0 0.5
1 0 0 0.5
1 0 0 0.5
1 0 0 0.5
1 0 0 0.5
1 0 0 0.5
1 0 0 0.5
1 0 0 0.5
1 0 0 0.5
1 0 0 0.5
1 0 0 0.5
1 0 0 0.5
1 0 0 0.5
1 0 0 0.5
1 0 0 0.5
1 0 0 0.5
1 0 0 0.5
1 0 0 0.5
1 0 0 0.5
1 0 0 0.5
1 0 0 0.5
1 0 0 0.5
1 0 0 0.5
1 0 0 0.5
1 0 0 0.5
1 0 0 0.5
1 0 0 0.5
1 0 0 0.5
1 0 0 0.5
1 0 0 0.5
1 0 0 0.5
1 0 0 0.5
1 0 0 0.5
1 0 0 0.5
1 0 0 0.5
1 0 0 0.5
1 0 0 0.5
1 0 0 0.5
1 0 0 0.5
1 0 0 0.5
1 0 0 0.5
1 0 0 0.5
1 0 0 0.5
1 0 0 0.5
1 0 0 0.5
1 0 0 0.5
1 0 0 0.5
1 0 0 0.5
1 0 0 0.5
1 0 0 0.5
1 0 0 0.5
1 0 0 0.5
1 0 0 0.5
1 0 0 0.5
1 0 0 0.5
1 0 0 0.5
1 0 0 0.5
1 0 0 0.5
1 0 0 0.5
1 0 0 0.5
1 0 0 0.5
1 0 0 0.5
1 0 0 0.5
1 0 0 0.5
1 0 0 0.5
1 0 0 0.5
1 0 0 0.5
1 0 0 0.5
1 0 0 0.5
1 0 0 0.5
1 0 0 0.5
1 0 0 0.5
1 0 0 0.5
1 0 0 0.5
1 0 0 0.5
1 0 0 0.5
1 0 0 0.5
1 0 0 0.5
1 0 0 0.5
1 0 0 0.5
1 0 0 0.5
1 0 0 0.5
1 0 0 0.5
1 0 0 0.5
1 0 0 0.5
1 0 0 0.5
1 0 0 0.5
1 0 0 0.5
1 0 0 0.5
1 0 0 0.5
1 0 0 0.5
1 0 0 0.5
1 0 0 0.5
1 0 0 0.5
1 0 0 0.5
1 0 0 0.5
1 0 0 0.5
1 0 0 0.5
1 0 0 0.5
1 0 0 0.5
1 0 0 0.5
1 0 0 0.5
1 0 0 0.5
1 0 0 0.5
1 0 0 0.5
1 0 0 0.5
1 0 0 0.5
1 0 0 0.5
1 0 0 0.5
1 0 0 0.5
1 0 0 0.5
1 0 0 0.5
1 0 0 0.5
1 0 0 0.5
1 0 0 0.5
1 0 0 0.5
1 0 0 0.5
1 0 0 0.5
1 0 0 0.5
1 0 0 0.5
1 0 0 0.5
1 0 0 0.5
1 0 0 0.5
1 0 0 0.5
1 0 0 0.5
1 0 0 0.5
1 0 0 0.5
1 0 0 0.5
1 0 0 0.5
1 0 0 0.5
1 0 0 0.5
1 0 0 0.5
1 0 0 0.5
1 0 0 0.5
1 0 0 0.5
1 0 0 0.5
1 0 0 0.5
1 0 0 0.5
1 0 0 0.5
1 0 0 0.5
1 0 0 0.5
1 0 0 0.5
1 0 0 0.5
1 0 0 0.5
1 0 0 0.5
1 0 0 0.5
1 0 0 0.5
1 0 0 0.5
1 0 0 0.5
1 0 0 0.5
1 0 0 0.5
1 0 0 0.5
1 0 0 0.5
1 0 0 0.5
1 0 0 0.5
1 0 0 0.5
1 0 0 0.5
1 0 0 0.5
1 0 0 0.5
1 0 0 0.5
1 0 0 0.5
1 0 0 0.5
1 0 0 0.5
1 0 0 0.5
1 0 0 0.5
1 0 0 0.5
1 0 0 0.5
1 0 0 0.5
1 0 0 0.5
1 0 0 0.5
1 0 0 0.5
1 0 0 0.5
1 0 0 0.5
1 0 0 0.5
1 0 0 0.5
1 0 0 0.5
1 0 0 0.5
1 0 0 0.5
1 0 0 0.5
1 0 0 0.5
1 0 0 0.5
1 0 0 0.5
1 0 0 0.5
1 0 0 0.5
1 0 0 0.5
1 0 0 0.5
1 0 0 0.5
1 0 0 0.5
1 0 0 0.5
1 0 0 0.5
1 0 0 0.5
1 0 0 0.5
1 0 0 0.5
1 0 0 0.5
1 0 0 0.5
1 0 0 0.5
1 0 0 0.5
1 0 0 0.5
1 0 0 0.5
1 0 0 0.5
1 0 0 0.5
1 0 0 0.5
1 0 0 0.5
1 0 0 0.5
1 0 0 0.5
1 0 0 0.5
1 0 0 0.5
1 0 0 0.5
1 0 0 0.5
1 0 0 0.5
1 0 0 0.5
1 0 0 0.5
1 0 0 0.5
1 0 0 0.5
1 0 0 0.5
1 0 0 0.5
1 0 0 0.5
1 0 0 0.5
1 0 0 0.5
1 0 0 0.5
1 0 0 0.5
1 0 0 0.5
1 0 0 0.5
1 0 0 0.5
1 0 0 0.5
1 0 0 0.5
1 0 0 0.5
1 0 0 0.5
1 0 0 0.5
1 0 0 0.5
1 0 0 0.5
1 0 0 0.5
1 0 0 0.5
1 0 0 0.5
1 0 0 0.5
1 0 0 0.5
1 0 0 0.5
1 0 0 0.5
1 0 0 0.5
1 0 0 0.5
1 0 0 0.5
1 0 0 0.5
1 0 0 0.5
1 0 0 0.5
1 0 0 0.5
1 0 0 0.5
1 0 0 0.5
1 0 0 0.5
1 0 0 0.5
1 0 0 0.5
1 0 0 0.5
1 0 0 0.5
1 0 0 0.5
1 0 0 0.5
1 0 0 0.5
1 0 0 0.5
1 0 0 0.5
1 0 0 0.5
1 0 0 0.5
1 0 0 0.5
1 0 0 0.5
1 0 0 0.5
1 0 0 0.5
1 0 0 0.5
1 0 0 0.5
1 0 0 0.5
1 0 0 0.5
1 0 0 0.5
1 0 0 0.5
1 0 0 0.5
1 0 0 0.5
1 0 0 0.5
1 0 0 0.5
1 0 0 0.5
1 0 0 0.5
1 0 0 0.5
1 0 0 0.5
1 0 0 0.5
1 0 0 0.5
1 0 0 0.5
1 0 0 0.5
1 0 0 0.5
1 0 0 0.5
1 0 0 0.5
1 0 0 0.5
1 0 0 0.5
1 0 0 0.5
1 0 0 0.5
1 0 0 0.5
1 0 0 0.5
1 0 0 0.5
1 0 0 0.5
1 0 0 0.5
1 0 0 0.5
1 0 0 0.5
1 0 0 0.5
1 0 0 0.5
1 0 0 0.5
1 0 0 0.5
1 0 0 0.5
1 0 0 0.5
1 0 0 0.5
1 0 0 0.5
1 0 0 0.5
1 0 0 0.5
1 0 0 0.5
1 0 0 0.5
1 0 0 0.5
1 0 0 0.5
1 0 0 0.5
1 0 0 0.5
1 0 0 0.5
1 0 0 0.5
1 0 0 0.5
1 0 0 0.5
1 0 0 0.5
1 0 0 0.5
1 0 0 0.5
1 0 0 0.5
1 0 0 0.5
1 0 0 0.5
1 0 0 0.5
1 0 0 0.5
1 0 0 0.5
1 0 0 0.5
1 0 0 0.5
1 0 0 0.5
1 0 0 0.5
1 0 0 0.5
1 0 0 0.5
1 0 0 0.5
1 0 0 0.5
1 0 0 0.5
1 0 0 0.5
1 0 0 0.5
1 0 0 0.5
1 0 0 0.5
1 0 0 0.5
1 0 0 0.5
1 0 0 0.5
1 0 0 0.5
1 0 0 0.5
1 0 0 0.5
1 0 0 0.5
1 0 0 0.5
1 0 0 0.5
1 0 0 0.5
1 0 0 0.5
1 0 0 0.5
1 0 0 0.5
1 0 0 0.5
1 0 0 0.5
1 0 0 0.5
1 0 0 0.5
1 0 0 0.5
1 0 0 0.5
1 0 0 0.5
1 0 0 0.5
1 0 0 0.5
1 0 0 0.5
1 0 0 0.5
1 0 0 0.5
1 0 0 0.5
1 0 0 0.5
1 0 0 0.5
1 0 0 0.5
1 0 0 0.5
1 0 0 0.5
1 0 0 0.5
1 0 0 0.5
1 0 0 0.5
1 0 0 0.5
1 0 0 0.5
1 0 0 0.5
1 0 0 0.5

