# vtk DataFile Version 3.0
Gocad TSurf to VTK
ASCII
DATASET POLYDATA
POINTS 430 float
21570942.000 4575679.500 213.826
21570942.000 4575680.000 214.933
21571722.000 4575708.500 206.539
21570948.000 4575682.500 220.614
21571904.000 4575714.000 200.695
21570928.000 4575672.000 196.843
21570926.000 4575670.500 194.140
21570782.000 4575586.500 6.052
21570382.000 4575355.500 -512.112
21570174.000 4575236.000 -779.588
21569534.000 4575012.000 -1256.514
21571908.000 4575713.500 200.599
21569914.000 4575156.500 -945.229
21569624.000 4575068.000 -1130.841
21569914.000 4575156.500 -945.181
21569538.000 4575041.500 -1185.861
21569518.000 4575035.500 -1198.001
21569512.000 4575034.000 -1201.712
21569498.000 4575029.500 -1210.443
21569486.000 4575025.500 -1219.303
21569486.000 4575025.500 -1219.318
21569484.000 4575025.500 -1219.375
21569476.000 4575022.500 -1225.174
21569474.000 4575022.000 -1226.583
21569468.000 4575020.000 -1230.761
21569466.000 4575019.500 -1231.467
21569464.000 4575019.000 -1232.827
21569462.000 4575018.000 -1234.224
21569460.000 4575018.000 -1235.027
21569460.000 4575017.500 -1235.575
21569458.000 4575017.000 -1236.289
21569456.000 4575016.500 -1237.197
21569420.000 4575003.000 -1257.762
21569376.000 4574989.000 -1286.222
21569122.000 4574899.000 -1436.309
21570000.000 4574302.000 -2671.010
21571664.000 4575007.000 -1222.644
21568952.000 4574839.000 -1536.615
21567876.000 4574590.000 -1918.944
21567150.000 4574421.500 -2177.021
21566660.000 4574207.000 -2546.407
21566648.000 4574201.500 -2556.159
21566646.000 4574201.000 -2556.454
21566626.000 4574196.000 -2563.973
21566494.000 4574164.000 -2609.682
21565546.000 4573935.500 -2937.656
21565418.000 4573904.500 -2982.197
21565198.000 4573852.000 -3057.698
21564960.000 4573794.500 -3140.233
21564652.000 4573739.500 -3211.598
21564584.000 4573727.500 -3227.249
21564384.000 4573692.000 -3273.348
21564306.000 4573678.500 -3291.019
21564090.000 4573640.500 -3340.839
21563466.000 4573227.500 -4029.206
21570464.000 4573592.000 -4085.505
21563692.000 4573570.000 -3432.557
21563388.000 4573515.000 -3504.364
21563230.000 4573533.500 -3624.671
21562672.000 4573598.500 -4045.712
21562416.000 4573628.500 -4238.737
21563408.000 4572478.000 -5000.000
21563218.000 4572581.500 -5000.000
21564512.000 4572542.500 -5000.000
21566014.000 4572684.500 -5000.000
21570766.000 4573133.000 -5000.000
21571174.000 4573590.000 -4074.215
21571420.000 4574298.500 -2648.429
21571016.000 4573130.500 -5000.000
21571552.000 4573481.000 -4076.395
21571148.000 4573092.500 -5000.000
21571734.000 4573169.000 -4074.392
21572538.000 4573455.500 -2648.783
21571212.000 4572982.500 -5000.000
21571814.000 4572428.000 -5000.000
21572428.000 4572528.000 -4074.392
21572056.000 4572203.000 -5000.000
21572460.000 4572140.500 -4050.211
21573064.000 4572253.000 -2600.422
21572064.000 4572066.500 -5000.000
21572596.000 4571874.000 -4050.861
21572112.000 4571974.500 -5000.000
21572286.000 4571077.500 -5000.000
21572392.000 4570528.500 -5000.000
21572918.000 4570218.000 -4050.861
21573336.000 4571720.000 -2601.721
21572502.000 4569957.500 -5000.000
21572972.000 4569888.000 -4056.436
21573660.000 4569956.500 -2612.873
21572522.000 4569843.500 -5000.000
21573398.000 4568553.000 -4056.436
21573944.000 4569066.000 -2612.873
21572670.000 4569381.000 -5000.000
21573042.000 4568217.500 -5000.000
21573572.000 4568478.000 -4041.363
21573098.000 4568190.000 -5000.000
21574000.000 4567570.000 -4041.363
21574576.000 4568311.500 -2582.727
21573246.000 4567878.500 -5000.000
21573620.000 4567082.500 -5000.000
21574322.000 4566802.000 -5000.000
21574800.000 4567250.000 -4041.363
21574596.000 4566692.500 -5000.000
21575720.000 4566598.500 -5000.000
21576082.000 4567143.000 -4041.363
21575110.000 4568098.000 -2582.727
21576160.000 4566562.000 -5000.000
21577364.000 4567623.500 -4041.363
21576820.000 4568347.000 -2582.727
21576600.000 4566726.500 -5000.000
21577722.000 4567148.000 -5000.000
21577724.000 4567818.500 -4003.779
21577848.000 4567207.000 -5000.000
21578248.000 4567840.000 -4035.755
21577540.000 4568737.000 -2507.558
21578026.000 4567221.000 -5000.000
21578916.000 4567392.500 -5000.000
21579262.000 4568035.500 -4035.755
21578586.000 4568780.000 -2571.509
21579262.000 4567459.500 -5000.000
21580280.000 4567964.000 -4035.755
21579940.000 4568863.000 -2571.509
21579610.000 4567435.000 -5000.000
21580502.000 4567372.500 -5000.000
21580618.000 4567940.500 -4007.157
21580618.000 4568815.500 -2514.314
21580618.000 4567358.500 -5000.000
21580948.000 4567867.000 -4020.395
21581276.000 4568669.000 -2540.790
21580730.000 4567336.500 -5000.000
21581934.000 4567647.500 -4020.395
21581934.000 4568522.500 -2540.790
21581062.000 4567262.000 -5000.000
21581934.000 4567068.000 -5000.000
21582182.000 4567634.000 -4010.965
21582018.000 4567062.000 -5000.000
21582678.000 4567026.500 -5000.000
21582928.000 4567594.500 -4010.965
21582432.000 4568496.000 -2521.929
21582928.000 4567013.500 -5000.000
21583374.000 4567531.000 -4002.149
21582928.000 4568469.500 -2521.929
21583076.000 4566990.500 -5000.000
21584194.000 4566831.000 -5000.000
21584264.000 4566821.000 -5000.000
21584710.000 4567340.500 -4002.149
21583820.000 4568342.500 -2504.298
21584710.000 4566757.500 -5000.000
21585474.000 4567113.500 -5000.000
21585572.000 4567741.500 -4002.149
21584710.000 4568215.500 -2504.298
21585762.000 4567247.500 -5000.000
21585858.000 4567875.000 -4004.480
21585284.000 4568483.000 -2504.298
21585858.000 4567292.500 -5000.000
21587394.000 4568126.500 -5000.000
21587588.000 4568815.000 -4004.480
21585858.000 4568750.000 -2508.961
21587972.000 4568441.000 -5000.000
21588124.000 4569225.000 -3965.960
21587012.000 4569376.500 -2508.961
21588150.000 4568570.000 -5000.000
21589544.000 4569049.500 -5000.000
21589674.000 4569759.000 -3965.960
21588086.000 4570197.000 -2431.920
21590048.000 4569224.000 -5000.000
21590044.000 4569904.000 -3996.555
21589856.000 4570842.500 -2493.110
21590168.000 4569277.500 -5000.000
21591118.000 4569943.000 -5000.000
21591112.000 4570652.000 -3996.555
21591474.000 4570192.000 -5000.000
21591468.000 4570878.500 -4038.063
21591284.000 4571794.000 -2576.125
21591590.000 4570276.000 -5000.000
21593392.000 4571786.000 -4038.063
21592423.258 4572201.766 -2766.183
21592248.000 4570586.000 -5000.000
21593162.000 4571017.500 -5000.000
21593290.000 4571077.500 -5000.000
21593936.000 4571382.500 -5000.000
21593680.000 4572142.500 -4050.599
21592745.000 4572358.203 -2813.052
21594010.000 4571479.500 -5000.000
21594032.000 4571507.500 -5000.000
21595246.000 4573607.000 -5000.000
21595070.000 4574546.500 -4050.599
21594176.086 4573382.672 -3758.514
21595726.000 4574436.000 -5000.000
21595130.000 4574713.156 -4058.375
21595109.172 4574680.141 -4044.573
21595324.797 4575021.961 -4187.497
21595788.000 4574632.500 -5000.000
21595336.906 4575041.355 -4195.800
21595676.781 4575566.383 -4401.854
21595848.313 4575853.633 -4495.146
21595920.758 4575945.719 -4548.591
21595946.320 4575978.203 -4567.445
21596090.000 4575476.500 -5000.000
21596102.414 4576176.031 -4681.612
21596596.305 4576770.766 -4987.720
21596616.117 4576794.625 -5000.000
21595080.359 4574634.465 -4025.478
21595043.195 4574573.191 -4001.909
21595030.984 4574553.063 -3994.166
21595015.688 4574532.102 -3989.927
21594974.039 4574475.023 -3978.382
21594332.172 4573596.344 -3801.522
21593951.914 4573214.180 -3590.980
21593790.031 4573092.508 -3469.997
21593550.414 4572912.406 -3290.921
21593341.617 4572754.551 -3135.585
21592823.789 4572410.543 -2855.644
21592785.531 4572385.129 -2834.963
21592714.969 4572338.227 -2796.755
21592679.906 4572314.898 -2777.728
21592150.391 4572081.414 -2753.751
21591878.953 4571961.688 -2741.385
21591482.156 4571872.508 -2598.124
21591421.227 4571858.813 -2576.125
21591397.297 4571853.438 -2567.493
21591298.453 4571832.633 -2529.790
21591287.008 4571830.223 -2525.410
21591277.141 4571828.141 -2521.635
21591121.203 4571784.398 -2426.927
21590823.984 4571701.016 -2246.419
21590568.000 4571341.000 -2493.110
21590808.672 4571696.723 -2237.123
21589668.000 4571781.000 -989.665
21589120.000 4570553.000 -2431.920
21589916.203 4571765.883 -1255.135
21589847.102 4571812.031 -1122.341
21590254.133 4571738.813 -1625.687
21590255.727 4571738.688 -1627.450
21590256.094 4571738.656 -1627.850
21590285.469 4571736.348 -1660.337
21590708.703 4571703.070 -2128.417
21590770.852 4571698.203 -2197.281
21590799.391 4571695.969 -2228.905
21590804.547 4571695.563 -2234.616
21589778.063 4571858.133 -989.665
21589634.219 4571954.176 -713.118
21589633.711 4571954.496 -711.950
21589632.469 4571955.359 -709.869
21589631.352 4571956.133 -708.003
21589562.547 4572003.734 -592.516
21589453.641 4572079.094 -409.701
21588564.000 4571346.500 -897.880
21589350.711 4572135.500 -258.688
21588048.000 4571168.500 -897.880
21588008.000 4572116.500 598.210
21587678.000 4571858.500 566.701
21588022.000 4572121.500 599.543
21588076.000 4572150.500 605.336
21588180.000 4572200.500 610.955
21588146.000 4572187.500 613.706
21588358.000 4572269.000 594.599
21588799.180 4572434.668 546.412
21588801.992 4572434.250 543.940
21588806.727 4572433.555 539.784
21588822.680 4572424.813 516.381
21588838.531 4572416.121 493.119
21588922.055 4572370.391 370.373
21589074.461 4572286.906 146.564
21589155.906 4572242.293 26.959
21589158.047 4572241.109 23.890
21589160.891 4572239.535 19.812
21587274.000 4571530.000 505.402
21587256.000 4571514.000 502.581
21587246.000 4571508.000 502.084
21587214.000 4571483.000 500.002
21586794.000 4571162.500 469.698
21586620.000 4571030.500 458.142
21586446.000 4570901.000 451.724
21585984.000 4570582.500 470.334
21585976.000 4570577.500 470.693
21585864.000 4570502.000 478.378
21586434.000 4569938.000 -1013.441
21585968.000 4570572.500 471.625
21585860.000 4570498.500 478.671
21585858.000 4569625.000 -1013.441
21585858.000 4570498.000 478.705
21585430.000 4570298.500 482.743
21585224.000 4570202.000 483.390
21585132.000 4570162.000 487.975
21584710.000 4569965.500 491.404
21584942.000 4570078.500 497.501
21584996.000 4569224.000 -1006.447
21584710.000 4569090.500 -1006.447
21584264.000 4569154.000 -1006.447
21584584.000 4569983.500 488.915
21584210.000 4570022.500 457.828
21584710.000 4569970.000 499.388
21584718.000 4569973.500 498.761
21584126.000 4570029.500 446.887
21583882.000 4570060.500 436.052
21583508.000 4570125.500 448.302
21583174.000 4570184.500 461.020
21582928.000 4570219.500 456.141
21583020.000 4570211.500 466.933
21582928.000 4569344.500 -1032.894
21582680.000 4569358.000 -1032.894
21581934.000 4570272.500 418.421
21581934.000 4569397.500 -1061.184
21581998.000 4570277.500 435.070
21581934.000 4570276.500 424.916
21582112.000 4570278.000 451.230
21582844.000 4570232.500 467.579
21582872.000 4570231.000 468.175
21582928.000 4570228.000 471.072
21582926.000 4570228.500 471.278
21582938.000 4570226.000 470.039
21581902.000 4570279.500 419.718
21581862.000 4570284.000 413.456
21580618.000 4569690.500 -1021.471
21581192.000 4570375.000 341.150
21581604.000 4569471.000 -1061.184
21579600.000 4569762.000 -1107.264
21579262.000 4568910.500 -2571.509
21580618.000 4570488.500 339.769
21580532.000 4570498.500 339.495
21581000.000 4570413.500 341.743
21581102.000 4570392.000 339.199
21580500.000 4570502.000 339.389
21580242.000 4570540.000 351.600
21579970.000 4570577.000 358.694
21579694.000 4570625.000 384.240
21579552.000 4570640.000 381.365
21579262.000 4570660.500 356.981
21579262.000 4570671.500 375.521
21579262.000 4569785.500 -1107.264
21578924.000 4569720.500 -1107.264
21578936.000 4570647.000 376.908
21578454.000 4570611.000 380.123
21579052.000 4570655.500 376.141
21579088.000 4570658.500 376.205
21579080.000 4570658.000 376.286
21578314.000 4570594.500 371.435
21577882.000 4570556.500 365.753
21577740.000 4570547.500 369.130
21577240.000 4570540.000 420.213
21577354.000 4569656.000 -1011.337
21577186.000 4570539.000 425.668
21576276.000 4569071.000 -1124.090
21575730.000 4569794.500 334.546
21575848.000 4568910.500 -1124.090
21576622.000 4570278.000 427.710
21575982.000 4569942.500 376.784
21577054.000 4570483.000 428.889
21577176.000 4570538.500 426.450
21577146.000 4570526.500 428.863
21575734.000 4569803.500 344.980
21576316.000 4570127.000 417.049
21576452.000 4570197.500 427.241
21575728.000 4569801.000 344.771
21575688.000 4569819.500 342.492
21575654.000 4569834.500 340.625
21575580.000 4569867.500 336.061
21575198.000 4570027.500 294.498
21575038.000 4570093.000 274.254
21575042.000 4570096.000 282.532
21575010.000 4569356.000 -1124.090
21575152.000 4569053.000 -1124.090
21574492.000 4569579.500 -1169.309
21574292.000 4568917.000 -2582.727
21574350.000 4570025.000 -1169.309
21574184.000 4571015.000 -1152.581
21573552.000 4570616.500 -2601.721
21575016.000 4570215.000 271.714
21574942.000 4570633.000 269.304
21575024.000 4570172.500 275.593
21574906.000 4570834.000 269.992
21574876.000 4571019.500 274.805
21574834.000 4571317.000 294.940
21574818.000 4571413.000 296.559
21574824.000 4571387.500 299.692
21574078.000 4571566.500 -1152.581
21574384.000 4572257.000 298.615
21574270.000 4572473.000 290.902
21574556.000 4571933.000 310.179
21574764.000 4571530.500 311.187
21574794.000 4571468.500 306.028
21574820.000 4571413.500 301.473
21574268.000 4572474.000 290.823
21574266.000 4572478.500 290.458
21573666.000 4572366.000 -1150.633
21574266.000 4572478.000 290.473
21574266.000 4572485.500 289.784
21573000.000 4573028.000 -2648.783
21573574.000 4573528.500 -1223.175
21573342.000 4573742.000 -1223.175
21574266.000 4572487.500 289.572
21574210.000 4573054.000 230.406
21574158.000 4573789.000 198.682
21574156.000 4573829.000 199.183
21574154.000 4573855.000 199.845
21574150.000 4573939.000 199.389
21574146.000 4574028.500 200.837
21572798.000 4574678.500 -1229.187
21574144.000 4574029.500 200.838
21572176.000 4574080.000 -2652.791
21571910.000 4575713.000 200.596
21571930.000 4575707.000 200.559
21572108.000 4575656.500 201.170
21572148.000 4575645.500 201.760
21573420.000 4575277.500 194.418
21573026.000 4575392.000 197.757
21574024.000 4574239.500 201.081
21573836.000 4574565.000 201.450
21573670.000 4574852.500 202.490
21573488.000 4575175.000 210.041
21573782.000 4574662.500 207.063
21573480.000 4575191.000 210.419
21573424.000 4575283.500 207.339
21573334.000 4575307.500 205.175
21572338.000 4575591.500 202.881
21572850.000 4575448.500 209.653
21572164.000 4575641.500 202.000
21575420.000 4568946.000 -1124.090
21575964.000 4568027.000 -2582.727
21561990.000 4573646.000 -4504.290
21563036.000 4572680.000 -5000.000
21561690.000 4573658.500 -4691.420
21562788.000 4572814.500 -5000.000
21562620.000 4572882.500 -5000.000
21560886.000 4573581.000 -5000.000
21570948.000 4575683.000 221.846
21571454.000 4575701.500 215.052
21570950.000 4575685.000 225.446
21570880.000 4575682.500 226.921

POLYGONS 540 2160
3 413 405 414
3 418 105 362
3 287 280 157
3 90 87 91
3 277 164 160
3 323 317 324
3 389 388 390
3 341 348 349
3 139 137 140
3 396 389 397
3 236 237 226
3 64 63 55
3 314 319 321
3 239 227 226
3 228 246 245
3 329 328 335
3 186 203 202
3 8 7 4
3 106 104 107
3 110 107 111
3 298 307 308
3 247 256 257
3 74 73 71
3 415 416 406
3 389 396 395
3 79 77 80
3 249 268 267
3 19 18 10
3 336 335 334
3 34 33 10
3 295 289 296
3 277 160 280
3 153 149 150
3 344 341 343
3 331 337 333
3 32 31 10
3 247 263 264
3 46 45 35
3 389 393 392
3 190 186 202
3 38 37 35
3 172 216 176
3 108 104 419
3 188 186 189
3 412 405 413
3 61 54 55
3 249 277 276
3 93 92 90
3 22 21 10
3 388 75 72
3 214 175 215
3 95 93 94
3 186 207 206
3 105 97 362
3 247 264 265
3 249 272 271
3 280 283 282
3 47 46 35
3 314 125 121
3 187 181 208
3 285 293 286
3 359 366 368
3 209 181 210
3 133 132 130
3 91 87 88
3 155 152 156
3 276 277 279
3 277 249 164
3 247 265 266
3 162 161 159
3 222 221 173
3 78 80 77
3 155 154 152
3 344 418 362
3 162 159 163
3 253 255 254
3 285 280 287
3 302 303 316
3 346 352 353
3 173 225 224
3 398 401 402
3 105 101 97
3 366 373 372
3 366 371 369
3 359 360 358
3 247 228 229
3 298 302 304
3 96 94 97
3 256 247 254
3 228 231 230
3 398 390 400
3 291 289 294
3 328 331 332
3 226 234 235
3 263 247 262
3 135 133 134
3 343 341 114
3 173 172 170
3 210 181 211
3 398 36 11
3 219 173 220
3 34 10 35
3 331 333 332
3 359 370 360
3 211 181 212
3 121 318 317
3 79 76 77
3 165 163 166
3 357 344 358
3 382 374 381
3 139 136 137
3 95 94 96
3 383 376 384
3 188 185 186
3 374 366 376
3 86 84 87
3 123 122 120
3 172 218 217
3 344 357 356
3 185 181 186
3 285 289 290
3 122 119 120
3 143 142 140
3 43 42 35
3 300 289 146
3 68 66 69
3 55 54 35
3 314 316 125
3 65 55 66
3 130 127 131
3 247 252 253
3 331 340 339
3 98 95 96
3 169 166 170
3 341 118 114
3 338 331 339
3 249 271 270
3 385 85 78
3 36 398 400
3 102 100 101
3 30 29 10
3 420 421 422
3 280 282 281
3 83 82 80
3 387 389 391
3 112 111 113
3 49 48 35
3 148 147 145
3 258 259 247
3 180 175 181
3 141 138 301
3 89 86 87
3 367 85 376
3 328 317 330
3 153 150 288
3 61 62 60
3 317 314 121
3 330 318 331
3 359 344 361
3 278 275 276
3 192 191 193
3 106 103 104
3 302 298 301
3 170 166 167
3 398 407 399
3 302 314 313
3 181 209 208
3 327 328 329
3 216 172 217
3 374 380 381
3 414 405 406
3 303 301 138
3 28 27 10
3 388 78 75
3 175 172 176
3 314 315 313
3 75 71 72
3 100 99 96
3 131 134 130
3 374 376 377
3 41 40 35
3 300 146 141
3 115 112 113
3 184 183 181
3 398 11 401
3 240 228 241
3 60 59 54
3 370 359 368
3 232 226 230
3 136 134 137
3 144 143 140
3 344 362 361
3 247 249 250
3 302 301 303
3 424 425 422
3 298 289 300
3 108 419 343
3 247 229 249
3 103 102 101
3 191 188 189
3 331 341 340
3 365 88 367
3 229 164 249
3 249 274 273
3 212 181 213
3 205 204 186
3 156 152 157
3 148 145 149
3 177 174 175
3 114 118 113
3 173 226 225
3 24 23 10
3 404 417 415
3 214 182 175
3 54 61 60
3 36 10 11
3 409 405 410
3 205 186 206
3 406 405 404
3 72 71 69
3 84 80 85
3 36 67 35
3 158 156 159
3 328 334 335
3 280 284 283
3 363 88 365
3 302 313 312
3 169 168 166
3 145 140 146
3 186 187 207
3 404 415 406
3 419 105 418
3 39 38 35
3 33 32 10
3 254 247 253
3 237 238 226
3 128 127 124
3 161 158 159
3 274 249 275
3 68 65 66
3 426 427 2
3 171 170 172
3 298 300 301
3 104 101 105
3 350 349 348
3 16 15 10
3 129 127 130
3 88 87 84
3 99 98 96
3 363 361 364
3 40 39 35
3 411 408 409
3 154 151 152
3 287 153 288
3 298 311 299
3 341 346 348
3 151 148 149
3 289 295 294
3 199 200 198
3 318 118 331
3 56 53 54
3 123 120 124
3 93 90 94
3 385 78 388
3 368 366 369
3 341 331 118
3 252 247 250
3 89 87 90
3 149 145 150
3 322 314 321
3 302 316 314
3 5 0 4
3 103 101 104
3 340 341 342
3 303 128 316
3 359 365 366
3 119 117 120
3 204 203 186
3 181 182 213
3 328 330 331
3 121 117 318
3 343 114 108
3 248 247 266
3 389 395 394
3 10 36 35
3 341 349 342
3 366 367 376
3 131 138 134
3 132 129 130
3 233 226 232
3 300 141 301
3 320 317 323
3 86 83 84
3 67 66 55
3 97 94 364
3 51 50 35
3 18 17 10
3 54 53 35
3 374 377 379
3 226 227 225
3 133 130 134
3 226 173 170
3 167 166 163
3 367 88 84
3 258 247 257
3 131 128 303
3 192 188 191
3 65 64 55
3 285 287 288
3 344 356 355
3 62 421 420
3 341 344 346
3 228 247 246
3 92 89 90
3 223 173 224
3 171 169 170
3 4 0 2
3 398 405 407
3 247 248 246
3 306 298 304
3 142 139 140
3 112 110 111
3 304 302 305
3 9 4 10
3 141 137 138
3 35 67 55
3 405 412 410
3 228 243 242
3 192 197 198
3 147 144 145
3 377 376 378
3 374 379 380
3 428 429 427
3 153 157 152
3 298 306 307
3 101 96 97
3 343 419 345
3 376 383 378
3 228 167 229
3 6 5 4
3 141 146 140
3 398 399 397
3 389 390 397
3 243 228 244
3 0 1 2
3 385 376 85
3 78 77 75
3 345 419 418
3 269 249 270
3 290 289 291
3 110 109 107
3 153 152 149
3 314 317 319
3 10 4 11
3 375 374 382
3 404 398 403
3 126 123 124
3 186 181 187
3 116 115 113
3 389 392 391
3 229 167 163
3 42 41 35
3 3 426 2
3 373 374 375
3 344 345 418
3 279 280 281
3 144 140 145
3 222 173 223
3 7 6 4
3 48 47 35
3 107 104 108
3 74 71 75
3 73 70 71
3 384 385 387
3 173 221 220
3 247 261 262
3 285 288 289
3 125 124 120
3 229 163 164
3 78 85 80
3 317 320 319
3 366 372 371
3 160 157 280
3 183 180 181
3 109 106 107
3 116 113 117
3 298 309 311
3 180 179 175
3 226 233 234
3 334 328 332
3 195 192 194
3 117 113 118
3 160 156 157
3 91 94 90
3 344 359 358
3 37 34 35
3 390 72 400
3 20 19 10
3 359 361 363
3 125 128 124
3 160 159 156
3 421 423 422
3 407 405 408
3 346 344 347
3 228 245 244
3 131 127 128
3 331 338 337
3 308 310 309
3 91 88 363
3 108 114 111
3 226 170 167
3 238 239 226
3 305 302 312
3 120 117 121
3 119 116 117
3 44 43 35
3 136 135 134
3 280 285 284
3 261 247 260
3 192 193 194
3 129 126 127
3 58 57 54
3 398 402 403
3 236 226 235
3 228 242 241
3 317 326 325
3 17 16 10
3 275 249 276
3 141 140 137
3 70 69 71
3 405 398 404
3 303 138 131
3 352 346 347
3 173 219 218
3 249 269 268
3 317 325 324
3 376 385 384
3 277 280 279
3 175 176 215
3 195 196 192
3 196 197 192
3 165 162 163
3 326 317 327
3 367 84 85
3 178 177 175
3 423 424 422
3 29 28 10
3 316 128 125
3 362 364 361
3 289 298 297
3 158 155 156
3 344 343 345
3 53 52 35
3 249 267 251
3 50 49 35
3 309 298 308
3 172 173 218
3 317 318 330
3 297 298 299
3 181 175 182
3 150 146 289
3 366 374 373
3 228 240 231
3 25 24 10
3 23 22 10
3 91 364 94
3 12 9 10
3 12 14 9
3 384 386 383
3 27 26 10
3 389 385 388
3 137 134 138
3 296 289 297
3 174 171 172
3 292 285 290
3 60 62 420
3 160 164 159
3 185 184 181
3 57 56 54
3 59 58 54
3 287 157 153
3 21 20 10
3 9 8 4
3 31 30 10
3 288 150 289
3 1 3 2
3 385 389 387
3 351 344 354
3 114 113 111
3 247 259 260
3 36 400 67
3 121 125 120
3 344 351 347
3 408 405 409
3 67 69 66
3 363 364 91
3 97 364 362
3 419 104 105
3 354 344 355
3 76 75 77
3 359 363 365
3 76 74 75
3 100 96 101
3 318 117 118
3 15 13 10
3 168 165 166
3 179 178 175
3 226 228 230
3 26 25 10
3 83 80 84
3 197 199 198
3 13 12 10
3 285 292 293
3 284 285 286
3 108 111 107
3 390 398 397
3 150 145 146
3 366 365 367
3 82 81 80
3 81 79 80
3 249 273 272
3 426 428 427
3 63 61 55
3 67 400 69
3 388 72 390
3 151 149 152
3 314 322 315
3 198 200 201
3 400 72 69
3 52 51 35
3 186 190 189
3 126 124 127
3 163 159 164
3 174 172 175
3 45 44 35
3 317 328 327
3 226 167 228
3 249 251 250
3 70 68 69
3 393 389 394

POINT_DATA 430
COLOR_SCALARS GocadColor 4
1 0 0 0.5
1 0 0 0.5
1 0 0 0.5
1 0 0 0.5
1 0 0 0.5
1 0 0 0.5
1 0 0 0.5
1 0 0 0.5
1 0 0 0.5
1 0 0 0.5
1 0 0 0.5
1 0 0 0.5
1 0 0 0.5
1 0 0 0.5
1 0 0 0.5
1 0 0 0.5
1 0 0 0.5
1 0 0 0.5
1 0 0 0.5
1 0 0 0.5
1 0 0 0.5
1 0 0 0.5
1 0 0 0.5
1 0 0 0.5
1 0 0 0.5
1 0 0 0.5
1 0 0 0.5
1 0 0 0.5
1 0 0 0.5
1 0 0 0.5
1 0 0 0.5
1 0 0 0.5
1 0 0 0.5
1 0 0 0.5
1 0 0 0.5
1 0 0 0.5
1 0 0 0.5
1 0 0 0.5
1 0 0 0.5
1 0 0 0.5
1 0 0 0.5
1 0 0 0.5
1 0 0 0.5
1 0 0 0.5
1 0 0 0.5
1 0 0 0.5
1 0 0 0.5
1 0 0 0.5
1 0 0 0.5
1 0 0 0.5
1 0 0 0.5
1 0 0 0.5
1 0 0 0.5
1 0 0 0.5
1 0 0 0.5
1 0 0 0.5
1 0 0 0.5
1 0 0 0.5
1 0 0 0.5
1 0 0 0.5
1 0 0 0.5
1 0 0 0.5
1 0 0 0.5
1 0 0 0.5
1 0 0 0.5
1 0 0 0.5
1 0 0 0.5
1 0 0 0.5
1 0 0 0.5
1 0 0 0.5
1 0 0 0.5
1 0 0 0.5
1 0 0 0.5
1 0 0 0.5
1 0 0 0.5
1 0 0 0.5
1 0 0 0.5
1 0 0 0.5
1 0 0 0.5
1 0 0 0.5
1 0 0 0.5
1 0 0 0.5
1 0 0 0.5
1 0 0 0.5
1 0 0 0.5
1 0 0 0.5
1 0 0 0.5
1 0 0 0.5
1 0 0 0.5
1 0 0 0.5
1 0 0 0.5
1 0 0 0.5
1 0 0 0.5
1 0 0 0.5
1 0 0 0.5
1 0 0 0.5
1 0 0 0.5
1 0 0 0.5
1 0 0 0.5
1 0 0 0.5
1 0 0 0.5
1 0 0 0.5
1 0 0 0.5
1 0 0 0.5
1 0 0 0.5
1 0 0 0.5
1 0 0 0.5
1 0 0 0.5
1 0 0 0.5
1 0 0 0.5
1 0 0 0.5
1 0 0 0.5
1 0 0 0.5
1 0 0 0.5
1 0 0 0.5
1 0 0 0.5
1 0 0 0.5
1 0 0 0.5
1 0 0 0.5
1 0 0 0.5
1 0 0 0.5
1 0 0 0.5
1 0 0 0.5
1 0 0 0.5
1 0 0 0.5
1 0 0 0.5
1 0 0 0.5
1 0 0 0.5
1 0 0 0.5
1 0 0 0.5
1 0 0 0.5
1 0 0 0.5
1 0 0 0.5
1 0 0 0.5
1 0 0 0.5
1 0 0 0.5
1 0 0 0.5
1 0 0 0.5
1 0 0 0.5
1 0 0 0.5
1 0 0 0.5
1 0 0 0.5
1 0 0 0.5
1 0 0 0.5
1 0 0 0.5
1 0 0 0.5
1 0 0 0.5
1 0 0 0.5
1 0 0 0.5
1 0 0 0.5
1 0 0 0.5
1 0 0 0.5
1 0 0 0.5
1 0 0 0.5
1 0 0 0.5
1 0 0 0.5
1 0 0 0.5
1 0 0 0.5
1 0 0 0.5
1 0 0 0.5
1 0 0 0.5
1 0 0 0.5
1 0 0 0.5
1 0 0 0.5
1 0 0 0.5
1 0 0 0.5
1 0 0 0.5
1 0 0 0.5
1 0 0 0.5
1 0 0 0.5
1 0 0 0.5
1 0 0 0.5
1 0 0 0.5
1 0 0 0.5
1 0 0 0.5
1 0 0 0.5
1 0 0 0.5
1 0 0 0.5
1 0 0 0.5
1 0 0 0.5
1 0 0 0.5
1 0 0 0.5
1 0 0 0.5
1 0 0 0.5
1 0 0 0.5
1 0 0 0.5
1 0 0 0.5
1 0 0 0.5
1 0 0 0.5
1 0 0 0.5
1 0 0 0.5
1 0 0 0.5
1 0 0 0.5
1 0 0 0.5
1 0 0 0.5
1 0 0 0.5
1 0 0 0.5
1 0 0 0.5
1 0 0 0.5
1 0 0 0.5
1 0 0 0.5
1 0 0 0.5
1 0 0 0.5
1 0 0 0.5
1 0 0 0.5
1 0 0 0.5
1 0 0 0.5
1 0 0 0.5
1 0 0 0.5
1 0 0 0.5
1 0 0 0.5
1 0 0 0.5
1 0 0 0.5
1 0 0 0.5
1 0 0 0.5
1 0 0 0.5
1 0 0 0.5
1 0 0 0.5
1 0 0 0.5
1 0 0 0.5
1 0 0 0.5
1 0 0 0.5
1 0 0 0.5
1 0 0 0.5
1 0 0 0.5
1 0 0 0.5
1 0 0 0.5
1 0 0 0.5
1 0 0 0.5
1 0 0 0.5
1 0 0 0.5
1 0 0 0.5
1 0 0 0.5
1 0 0 0.5
1 0 0 0.5
1 0 0 0.5
1 0 0 0.5
1 0 0 0.5
1 0 0 0.5
1 0 0 0.5
1 0 0 0.5
1 0 0 0.5
1 0 0 0.5
1 0 0 0.5
1 0 0 0.5
1 0 0 0.5
1 0 0 0.5
1 0 0 0.5
1 0 0 0.5
1 0 0 0.5
1 0 0 0.5
1 0 0 0.5
1 0 0 0.5
1 0 0 0.5
1 0 0 0.5
1 0 0 0.5
1 0 0 0.5
1 0 0 0.5
1 0 0 0.5
1 0 0 0.5
1 0 0 0.5
1 0 0 0.5
1 0 0 0.5
1 0 0 0.5
1 0 0 0.5
1 0 0 0.5
1 0 0 0.5
1 0 0 0.5
1 0 0 0.5
1 0 0 0.5
1 0 0 0.5
1 0 0 0.5
1 0 0 0.5
1 0 0 0.5
1 0 0 0.5
1 0 0 0.5
1 0 0 0.5
1 0 0 0.5
1 0 0 0.5
1 0 0 0.5
1 0 0 0.5
1 0 0 0.5
1 0 0 0.5
1 0 0 0.5
1 0 0 0.5
1 0 0 0.5
1 0 0 0.5
1 0 0 0.5
1 0 0 0.5
1 0 0 0.5
1 0 0 0.5
1 0 0 0.5
1 0 0 0.5
1 0 0 0.5
1 0 0 0.5
1 0 0 0.5
1 0 0 0.5
1 0 0 0.5
1 0 0 0.5
1 0 0 0.5
1 0 0 0.5
1 0 0 0.5
1 0 0 0.5
1 0 0 0.5
1 0 0 0.5
1 0 0 0.5
1 0 0 0.5
1 0 0 0.5
1 0 0 0.5
1 0 0 0.5
1 0 0 0.5
1 0 0 0.5
1 0 0 0.5
1 0 0 0.5
1 0 0 0.5
1 0 0 0.5
1 0 0 0.5
1 0 0 0.5
1 0 0 0.5
1 0 0 0.5
1 0 0 0.5
1 0 0 0.5
1 0 0 0.5
1 0 0 0.5
1 0 0 0.5
1 0 0 0.5
1 0 0 0.5
1 0 0 0.5
1 0 0 0.5
1 0 0 0.5
1 0 0 0.5
1 0 0 0.5
1 0 0 0.5
1 0 0 0.5
1 0 0 0.5
1 0 0 0.5
1 0 0 0.5
1 0 0 0.5
1 0 0 0.5
1 0 0 0.5
1 0 0 0.5
1 0 0 0.5
1 0 0 0.5
1 0 0 0.5
1 0 0 0.5
1 0 0 0.5
1 0 0 0.5
1 0 0 0.5
1 0 0 0.5
1 0 0 0.5
1 0 0 0.5
1 0 0 0.5
1 0 0 0.5
1 0 0 0.5
1 0 0 0.5
1 0 0 0.5
1 0 0 0.5
1 0 0 0.5
1 0 0 0.5
1 0 0 0.5
1 0 0 0.5
1 0 0 0.5
1 0 0 0.5
1 0 0 0.5
1 0 0 0.5
1 0 0 0.5
1 0 0 0.5
1 0 0 0.5
1 0 0 0.5
1 0 0 0.5
1 0 0 0.5
1 0 0 0.5
1 0 0 0.5
1 0 0 0.5
1 0 0 0.5
1 0 0 0.5
1 0 0 0.5
1 0 0 0.5
1 0 0 0.5
1 0 0 0.5
1 0 0 0.5
1 0 0 0.5
1 0 0 0.5
1 0 0 0.5
1 0 0 0.5
1 0 0 0.5
1 0 0 0.5
1 0 0 0.5
1 0 0 0.5
1 0 0 0.5
1 0 0 0.5
1 0 0 0.5
1 0 0 0.5
1 0 0 0.5
1 0 0 0.5
1 0 0 0.5
1 0 0 0.5
1 0 0 0.5
1 0 0 0.5
1 0 0 0.5
1 0 0 0.5
1 0 0 0.5
1 0 0 0.5
1 0 0 0.5
1 0 0 0.5
1 0 0 0.5
1 0 0 0.5
1 0 0 0.5
1 0 0 0.5
1 0 0 0.5
1 0 0 0.5
1 0 0 0.5
1 0 0 0.5
1 0 0 0.5
1 0 0 0.5
1 0 0 0.5
1 0 0 0.5
1 0 0 0.5
1 0 0 0.5
1 0 0 0.5
1 0 0 0.5
1 0 0 0.5
1 0 0 0.5
1 0 0 0.5
1 0 0 0.5
1 0 0 0.5
1 0 0 0.5
1 0 0 0.5
1 0 0 0.5
1 0 0 0.5

