# vtk DataFile Version 3.0
Gocad TSurf to VTK
ASCII
DATASET POLYDATA
POINTS 113 float
21587265.063 4586928.313 -916.954
21587567.445 4586725.359 333.156
21587638.109 4586911.297 332.732
21587473.070 4587490.922 -900.840
21587436.711 4586381.359 344.915
21587030.398 4586337.516 -914.278
21587335.984 4586121.938 337.245
21586825.633 4586795.906 -2163.032
21587126.945 4587571.688 -2157.760
21586487.406 4586017.578 -2178.918
21586761.281 4585737.797 -929.195
21586457.500 4586857.438 -3415.657
21586566.875 4587090.484 -3413.124
21586176.930 4586204.563 -3431.803
21586026.102 4585801.813 -3436.589
21586045.445 4586841.297 -4672.898
21585868.813 4586396.078 -4685.134
21586218.258 4587186.531 -4663.698
21586343.781 4587499.953 -4655.721
21586861.250 4587878.094 -3410.547
21586527.508 4587983.406 -4668.599
21586974.352 4588274.156 -3399.834
21587201.406 4587806.656 -2150.930
21586702.633 4588464.031 -4645.731
21587027.883 4588437.328 -3398.472
21587287.164 4588199.469 -2148.462
21586777.414 4588910.828 -4625.405
21587100.758 4588979.281 -3402.212
21587365.977 4588473.719 -2154.066
21587128.656 4589154.531 -3415.820
21587434.938 4589115.875 -2184.311
21586814.617 4589144.484 -4643.550
21587201.164 4589403.813 -3434.477
21587474.094 4589268.813 -2195.871
21586922.492 4589524.750 -4672.067
21587225.367 4589563.281 -3446.886
21587514.750 4589680.891 -2228.404
21586945.117 4589699.219 -4685.727
21586935.945 4589715.391 -4687.233
21587219.313 4589590.125 -3449.192
21587241.117 4589980.438 -3480.364
21586966.117 4590255.438 -4730.364
21587496.188 4589354.625 -2202.354
21587789.336 4589398.531 -977.816
21587767.305 4589202.641 -962.409
21588066.117 4589155.438 269.635
21587743.531 4589086.922 -953.537
21588035.945 4588615.391 312.767
21587708.641 4588543.516 -919.498
21588045.117 4588599.219 314.274
21587688.711 4588427.781 -911.447
21587633.656 4588230.328 -899.908
21588023.750 4588434.453 327.173
21587926.109 4588092.422 352.810
21587601.625 4588129.406 -896.872
21587570.016 4587968.031 -888.089
21587878.969 4587820.563 373.839
21587529.859 4587730.156 -891.625
21587813.859 4587411.672 356.490
21587773.047 4587281.078 350.326
21585785.398 4586172.531 -4682.899
21585703.281 4585948.750 -4686.863
21585893.117 4585336.938 -3446.775
21586362.742 4585692.156 -2185.194
21585525.547 4585251.766 -4707.433
21585717.461 4584619.922 -3467.872
21585418.883 4584784.563 -4721.063
21586169.688 4585074.656 -2196.437
21586024.438 4584477.906 -2213.964
21586622.297 4585364.266 -936.712
21586500.242 4585009.578 -940.213
21586987.211 4585342.453 314.412
21586902.508 4585119.156 316.632
21587149.875 4585750.156 327.338
21586795.773 4584819.734 312.289
21586705.633 4584471.516 302.023
21586304.797 4584250.141 -962.683
21586521.109 4583694.297 279.221
21586001.781 4584430.656 -2215.555
21585915.484 4584022.500 -2234.377
21585678.078 4584519.844 -3471.089
21585371.359 4584680.328 -4724.530
21585347.414 4584564.703 -4727.859
21585586.813 4584097.547 -3495.112
21585275.313 4584175.531 -4760.142
21585246.469 4584019.844 -4767.231
21585545.602 4583796.500 -3509.116
21585227.023 4583544.031 -4777.492
21585854.539 4583771.188 -2246.632
21585849.250 4583682.188 -2248.625
21585878.484 4583912.547 -2239.174
21586180.391 4583762.328 -980.943
21586211.734 4583829.188 -978.566
21586463.641 4583552.281 274.628
21586427.586 4583357.688 263.830
21586109.297 4583324.438 -1004.707
21586369.906 4583046.328 237.378
21585808.719 4583358.625 -2265.300
21585801.016 4583137.219 -2272.593
21585528.594 4583601.906 -3515.876
21585516.414 4583325.375 -3524.671
21585228.117 4583425.172 -4779.677
21585239.336 4583267.031 -4780.576
21585520.469 4583224.250 -3526.210
21585511.359 4583034.031 -3530.322
21585796.508 4583112.906 -2273.322
21586072.391 4583021.250 -1020.131
21585787.234 4582746.688 -2280.408
21586344.672 4582910.125 232.478
21586058.977 4582761.391 -1025.896
21586325.313 4582364.703 220.887
21586055.391 4582568.063 -1029.814
21586339.336 4582167.031 219.424

POLYGONS 174 696
3 98 106 95
3 25 21 22
3 23 21 24
3 49 50 52
3 25 22 55
3 39 38 35
3 63 67 69
3 9 63 10
3 11 9 7
3 14 63 9
3 100 103 98
3 84 85 83
3 95 106 96
3 54 55 53
3 61 62 14
3 20 19 21
3 28 25 51
3 19 18 12
3 88 89 91
3 87 101 100
3 54 53 51
3 76 92 77
3 32 31 29
3 20 18 19
3 103 102 104
3 57 3 58
3 43 33 44
3 26 23 24
3 69 70 72
3 24 21 25
3 105 98 103
3 89 99 97
3 3 0 2
3 7 9 5
3 62 65 67
3 43 44 45
3 107 102 112
3 15 16 13
3 30 46 44
3 111 110 109
3 91 95 94
3 90 88 91
3 80 66 81
3 83 90 79
3 99 87 100
3 11 13 9
3 82 84 83
3 76 79 92
3 40 41 38
3 60 61 14
3 46 28 48
3 16 60 13
3 62 67 63
3 91 93 77
3 33 30 44
3 70 76 75
3 8 12 7
3 111 107 112
3 35 38 37
3 19 8 22
3 69 67 70
3 0 5 4
3 63 69 10
3 28 51 50
3 47 48 49
3 97 98 95
3 86 89 88
3 90 91 92
3 106 109 108
3 30 27 28
3 5 10 73
3 36 32 42
3 80 81 82
3 3 59 58
3 93 91 94
3 83 86 88
3 13 14 9
3 78 68 65
3 79 90 92
3 54 25 55
3 60 14 13
3 39 35 36
3 83 85 86
3 105 104 107
3 23 20 21
3 105 103 104
3 42 33 43
3 25 54 51
3 59 3 2
3 61 64 62
3 92 91 77
3 70 75 74
3 27 24 28
3 106 107 109
3 22 57 55
3 0 1 2
3 99 100 97
3 5 9 10
3 68 78 76
3 45 46 47
3 27 26 24
3 31 26 29
3 35 37 34
3 99 86 87
3 100 101 102
3 72 70 74
3 78 79 76
3 65 66 80
3 98 105 106
3 111 112 110
3 109 107 111
3 67 65 68
3 75 76 77
3 32 29 33
3 8 7 0
3 21 19 22
3 11 17 15
3 51 53 52
3 80 79 78
3 38 39 40
3 62 64 65
3 3 8 0
3 100 102 103
3 10 71 73
3 80 83 79
3 50 48 28
3 65 80 78
3 36 42 43
3 105 107 106
3 46 45 44
3 29 27 30
3 33 29 30
3 67 68 70
3 42 32 33
3 14 62 63
3 50 51 52
3 48 50 49
3 30 28 46
3 57 56 55
3 22 8 3
3 5 6 4
3 40 39 36
3 71 69 72
3 34 31 32
3 104 102 107
3 57 22 3
3 91 89 95
3 11 15 13
3 6 5 73
3 68 76 70
3 86 85 87
3 10 69 71
3 46 48 47
3 12 18 17
3 7 5 0
3 29 26 27
3 95 96 94
3 7 12 11
3 28 24 25
3 89 97 95
3 82 83 80
3 100 98 97
3 1 0 4
3 90 83 88
3 35 34 32
3 19 12 8
3 109 110 108
3 64 66 65
3 35 32 36
3 89 86 99
3 106 108 96
3 55 56 53
3 57 58 56
3 12 17 11

POINT_DATA 113
COLOR_SCALARS GocadColor 4
1 0 0 0.5
1 0 0 0.5
1 0 0 0.5
1 0 0 0.5
1 0 0 0.5
1 0 0 0.5
1 0 0 0.5
1 0 0 0.5
1 0 0 0.5
1 0 0 0.5
1 0 0 0.5
1 0 0 0.5
1 0 0 0.5
1 0 0 0.5
1 0 0 0.5
1 0 0 0.5
1 0 0 0.5
1 0 0 0.5
1 0 0 0.5
1 0 0 0.5
1 0 0 0.5
1 0 0 0.5
1 0 0 0.5
1 0 0 0.5
1 0 0 0.5
1 0 0 0.5
1 0 0 0.5
1 0 0 0.5
1 0 0 0.5
1 0 0 0.5
1 0 0 0.5
1 0 0 0.5
1 0 0 0.5
1 0 0 0.5
1 0 0 0.5
1 0 0 0.5
1 0 0 0.5
1 0 0 0.5
1 0 0 0.5
1 0 0 0.5
1 0 0 0.5
1 0 0 0.5
1 0 0 0.5
1 0 0 0.5
1 0 0 0.5
1 0 0 0.5
1 0 0 0.5
1 0 0 0.5
1 0 0 0.5
1 0 0 0.5
1 0 0 0.5
1 0 0 0.5
1 0 0 0.5
1 0 0 0.5
1 0 0 0.5
1 0 0 0.5
1 0 0 0.5
1 0 0 0.5
1 0 0 0.5
1 0 0 0.5
1 0 0 0.5
1 0 0 0.5
1 0 0 0.5
1 0 0 0.5
1 0 0 0.5
1 0 0 0.5
1 0 0 0.5
1 0 0 0.5
1 0 0 0.5
1 0 0 0.5
1 0 0 0.5
1 0 0 0.5
1 0 0 0.5
1 0 0 0.5
1 0 0 0.5
1 0 0 0.5
1 0 0 0.5
1 0 0 0.5
1 0 0 0.5
1 0 0 0.5
1 0 0 0.5
1 0 0 0.5
1 0 0 0.5
1 0 0 0.5
1 0 0 0.5
1 0 0 0.5
1 0 0 0.5
1 0 0 0.5
1 0 0 0.5
1 0 0 0.5
1 0 0 0.5
1 0 0 0.5
1 0 0 0.5
1 0 0 0.5
1 0 0 0.5
1 0 0 0.5
1 0 0 0.5
1 0 0 0.5
1 0 0 0.5
1 0 0 0.5
1 0 0 0.5
1 0 0 0.5
1 0 0 0.5
1 0 0 0.5
1 0 0 0.5
1 0 0 0.5
1 0 0 0.5
1 0 0 0.5
1 0 0 0.5
1 0 0 0.5
1 0 0 0.5
1 0 0 0.5
1 0 0 0.5

