# vtk DataFile Version 3.0
Gocad TSurf to VTK
ASCII
DATASET POLYDATA
POINTS 508 float
21599328.000 4576951.000 -2625.055
21599172.000 4577328.000 -2626.613
21598798.000 4576920.000 -4063.306
21598576.000 4577768.000 -2626.613
21598876.000 4576731.000 -4062.527
21599782.000 4577171.000 -1187.583
21599544.000 4577736.500 -1189.919
21599834.000 4576771.500 -1187.583
21600234.000 4577390.500 249.890
21599432.000 4576153.000 -2625.055
21600028.000 4575713.000 -2507.911
21599032.000 4575534.000 -4062.527
21599330.000 4575314.000 -4003.956
21598636.000 4576171.500 -5000.000
21598582.000 4576588.000 -5000.000
21598772.000 4575130.500 -5000.000
21598866.000 4575048.500 -5000.000
21599382.000 4574915.000 -3997.874
21598882.000 4574915.000 -5000.000
21600132.000 4574915.000 -2495.749
21600246.000 4573719.000 -2495.749
21600940.000 4574317.000 -993.623
21599552.000 4573120.500 -3997.874
21600360.000 4572522.500 -2569.762
21598938.000 4574317.500 -5000.000
21598984.000 4573834.500 -5000.000
21599090.000 4572721.500 -5000.000
21599116.000 4572522.500 -5000.000
21599610.000 4572522.500 -4034.881
21599448.000 4571796.000 -5000.000
21599988.000 4571695.500 -4034.881
21600612.000 4571971.000 -2569.762
21599576.000 4571514.000 -5000.000
21599620.000 4571420.000 -5000.000
21600114.000 4571420.000 -4040.223
21599708.000 4571077.500 -5000.000
21600864.000 4571420.000 -2580.445
21601088.000 4570537.000 -2580.445
21601236.000 4572247.000 -1104.644
21601110.000 4572522.500 -1104.644
21601614.000 4571420.000 -1120.668
21601726.000 4570978.500 -1120.668
21601860.000 4572522.500 360.476
21602102.000 4571993.000 350.215
21602226.000 4571701.000 324.734
21601982.000 4572278.000 375.102
21601932.000 4572389.000 379.332
21601870.000 4572524.500 380.985
21601864.000 4572585.000 384.210
21601764.000 4573537.500 423.267
21601774.000 4573467.500 425.270
21601826.000 4573077.000 430.552
21601742.000 4573682.500 419.085
21601692.000 4574076.000 418.768
21601670.000 4574263.500 421.650
21601666.000 4574371.500 438.445
21601632.000 4574915.000 508.503
21600882.000 4574915.000 -993.623
21601650.000 4574720.000 496.441
21601648.000 4574801.500 509.996
21601644.000 4574868.500 521.130
21601642.000 4574915.500 529.597
21601424.000 4576511.500 484.178
21601630.000 4575335.500 605.096
21600726.000 4576112.500 -1011.867
21600866.000 4576923.500 374.323
21600664.000 4577072.500 334.686
21600690.000 4577054.000 338.587
21600238.000 4577396.000 266.664
21600220.000 4577434.500 260.303
21600198.000 4577479.500 252.818
21600166.000 4577554.500 249.213
21600118.000 4577661.000 244.109
21599918.000 4578136.000 236.519
21599916.000 4578142.000 236.565
21599914.000 4578143.500 236.585
21599248.000 4577956.500 -1189.919
21599912.000 4578146.500 236.611
21598992.000 4578372.000 -1189.919
21599914.000 4578148.500 236.603
21599474.000 4578627.500 -1189.919
21599030.000 4579110.000 -2626.613
21599918.000 4578151.500 236.604
21599950.000 4579097.500 -1191.015
21599348.000 4579423.500 -2627.343
21600170.000 4578400.000 236.687
21600478.000 4578702.500 238.858
21600550.000 4578773.000 239.500
21600552.000 4578774.000 239.513
21600320.000 4579438.500 -1191.015
21600556.000 4578776.500 239.536
21601548.000 4580012.000 -1179.194
21600906.000 4580487.500 -2619.463
21600634.000 4578813.000 239.887
21601246.000 4579105.500 232.190
21601268.000 4579115.500 232.812
21601290.000 4579125.500 233.360
21601994.000 4579443.500 259.172
21602192.000 4579536.000 261.074
21602060.000 4580381.000 -1179.194
21602000.000 4579446.000 259.368
21602130.000 4579503.500 267.434
21602174.000 4579522.500 270.113
21602194.000 4579532.500 269.598
21602260.000 4579588.500 265.926
21602394.000 4579704.000 258.361
21602502.000 4579796.500 252.300
21602562.000 4579843.500 256.111
21604248.000 4581241.500 233.532
21603602.000 4581660.000 -1199.851
21603672.000 4580760.000 247.671
21603712.000 4580793.000 247.926
21602922.000 4580136.000 261.587
21603310.000 4580444.000 277.000
21602760.000 4579998.000 268.745
21604194.000 4581189.000 245.745
21604238.000 4581226.500 245.472
21604252.000 4581238.000 244.919
21604406.000 4581459.500 246.678
21604682.000 4581852.500 249.593
21604694.000 4581870.000 249.051
21604992.000 4582300.500 244.266
21605028.000 4582351.500 244.045
21604148.000 4582166.000 -1199.851
21605056.000 4582392.000 243.867
21605060.000 4582397.000 243.842
21605080.000 4582423.500 244.731
21605554.000 4583100.000 251.135
21605612.000 4583183.500 249.023
21605366.000 4582826.000 258.038
21605646.000 4583229.000 252.358
21606848.000 4584939.500 268.563
21606098.000 4584939.500 -1173.578
21606668.000 4584679.000 272.917
21606854.000 4584934.500 286.145
21606518.000 4584459.500 277.063
21606160.000 4583947.500 279.393
21606060.000 4583804.000 277.999
21606120.000 4583887.000 281.562
21605730.000 4583344.500 260.885
21606108.000 4583869.500 281.649
21606920.000 4585018.500 290.363
21607960.000 4586317.000 392.514
21607332.000 4586467.000 -1070.494
21607270.000 4585437.000 352.079
21607302.000 4585476.500 356.479
21607674.000 4585934.000 402.841
21607796.000 4586089.000 408.849
21606406.000 4585321.500 -1173.578
21608070.000 4586467.000 381.743
21608070.000 4586473.500 381.623
21607410.000 4586864.000 -1070.494
21606582.000 4586467.000 -2546.996
21608104.000 4586641.500 367.598
21608210.000 4587257.500 281.994
21608088.000 4586546.000 379.970
21608240.000 4587413.000 265.283
21608350.000 4587857.500 268.819
21608396.000 4588054.000 263.859
21608396.000 4588055.000 263.837
21607646.000 4588055.000 -1176.376
21606740.000 4587261.000 -2546.996
21608396.000 4588055.000 263.826
21607844.000 4588396.500 -1176.376
21607292.000 4588738.000 -2617.584
21608396.000 4588056.000 263.792
21608436.000 4589421.000 -1129.000
21607686.000 4589421.000 -2586.000
21608462.000 4588179.500 258.457
21608532.000 4588304.000 261.984
21608848.000 4588847.500 290.501
21608960.000 4589035.500 302.582
21608988.000 4589088.000 301.941
21609158.000 4589374.500 325.027
21609186.000 4589421.000 328.000
21608754.000 4589982.000 -1129.000
21609174.000 4589400.000 327.020
21609184.000 4589417.000 328.354
21609186.000 4589421.000 328.673
21609192.000 4589433.500 329.656
21609346.000 4589735.500 352.910
21609790.000 4590651.000 369.530
21609908.000 4590925.500 344.013
21609762.000 4590587.000 373.626
21609776.000 4590619.000 372.896
21609374.000 4589788.000 357.785
21609564.000 4590161.000 384.342
21609938.000 4590994.000 337.636
21609940.000 4591000.000 337.096
21609324.000 4591165.500 -1116.402
21608324.000 4590543.000 -2586.000
21609942.000 4591002.000 336.891
21609578.000 4591535.000 -1116.402
21608702.000 4591332.000 -2577.602
21609948.000 4591002.500 336.600
21610668.000 4591629.500 -1112.758
21609940.000 4592134.000 -2575.172
21610310.000 4591041.000 319.189
21610406.000 4591050.500 317.196
21610648.000 4591070.500 320.783
21611024.000 4591099.500 331.430
21611188.000 4591110.000 341.245
21611346.000 4591120.500 349.492
21611396.000 4591125.000 349.656
21611122.000 4592141.000 -1112.758
21611382.000 4591123.000 351.340
21611396.000 4591123.500 352.090
21611534.000 4591125.000 360.158
21611910.000 4591132.500 375.071
21612032.000 4592169.000 -1112.758
21611736.000 4591127.500 370.444
21612296.000 4591144.000 385.241
21612374.000 4591147.000 386.666
21612456.000 4591149.000 389.727
21612930.000 4591151.500 418.792
21612936.000 4591151.500 419.111
21613184.000 4592185.500 -1055.678
21612666.000 4593213.000 -2575.172
21612940.000 4591151.500 419.477
21614470.000 4592124.000 -1001.304
21614292.000 4593183.000 -2500.869
21613068.000 4591143.000 427.763
21613226.000 4591133.000 438.072
21613736.000 4591108.500 459.700
21613910.000 4591103.500 462.375
21613392.000 4591122.500 449.080
21613546.000 4591114.000 456.766
21614218.000 4591085.500 480.053
21614384.000 4591077.500 487.106
21614412.000 4591077.500 486.796
21614348.000 4591078.000 487.512
21614646.000 4591071.500 489.325
21614652.000 4591073.000 489.445
21615488.000 4592446.000 -1012.551
21614970.000 4593398.000 -2508.367
21614910.000 4591148.500 494.614
21614972.000 4591169.500 492.645
21615078.000 4591203.000 491.368
21615376.000 4591295.500 490.209
21615704.000 4591399.500 486.574
21615712.000 4591402.000 486.462
21615500.000 4591334.000 489.736
21615712.000 4591402.500 486.485
21616004.000 4591494.500 483.266
21616198.000 4592418.000 -1012.551
21616006.000 4591487.500 494.809
21616082.000 4591514.500 497.281
21616350.000 4591615.000 499.680
21617662.000 4592096.500 524.700
21616608.000 4591700.500 517.677
21617026.000 4591852.500 528.238
21617448.000 4592012.500 528.520
21617228.000 4591928.000 530.662
21617812.000 4592155.000 522.005
21617818.000 4592157.500 521.901
21617560.000 4592912.500 -978.495
21616392.000 4593341.000 -2508.367
21617824.000 4592158.500 521.835
21618574.000 4593200.500 -1017.690
21617976.000 4593863.000 -2511.793
21617900.000 4592179.500 520.710
21618042.000 4592217.000 520.130
21618874.000 4592453.500 487.936
21619014.000 4592495.500 478.865
21618286.000 4592281.500 519.121
21618488.000 4592338.500 512.763
21619106.000 4592520.500 477.557
21619170.000 4592539.500 473.035
21619172.000 4592540.000 472.956
21619056.000 4593399.500 -1017.690
21618940.000 4594261.000 -2511.793
21619522.000 4592814.000 445.402
21619918.000 4593116.000 427.132
21620060.000 4593225.500 418.238
21620286.000 4593392.500 415.217
21620566.000 4593599.000 414.100
21620734.000 4593721.500 413.677
21620958.000 4593881.000 421.974
21620396.000 4594406.500 -1058.520
21620872.000 4593816.500 424.597
21620960.000 4593877.500 431.611
21621092.000 4593972.500 442.114
21623014.000 4595474.500 443.469
21621572.000 4594322.000 484.543
21622250.000 4595744.000 -1042.398
21622676.000 4596084.500 -1042.398
21620708.000 4594548.500 -1058.520
21621488.000 4596013.000 -2528.266
21620460.000 4595216.000 -2539.013
21619834.000 4594932.000 -2539.013
21620210.000 4595884.000 -4019.506
21620724.000 4596282.000 -4014.133
21619272.000 4595458.000 -4019.506
21618826.000 4595122.000 -4005.897
[...]
POINT_DATA 508
COLOR_SCALARS GocadColor 4
1 0 0 0.5
1 0 0 0.5
1 0 0 0.5
1 0 0 0.5
1 0 0 0.5
1 0 0 0.5
1 0 0 0.5
1 0 0 0.5
1 0 0 0.5
1 0 0 0.5
1 0 0 0.5
1 0 0 0.5
1 0 0 0.5
1 0 0 0.5
1 0 0 0.5
1 0 0 0.5
1 0 0 0.5
1 0 0 0.5
1 0 0 0.5
1 0 0 0.5
1 0 0 0.5
1 0 0 0.5
1 0 0 0.5
1 0 0 0.5
1 0 0 0.5
1 0 0 0.5
1 0 0 0.5
1 0 0 0.5
1 0 0 0.5
1 0 0 0.5
1 0 0 0.5
1 0 0 0.5
1 0 0 0.5
1 0 0 0.5
1 0 0 0.5
1 0 0 0.5
1 0 0 0.5
1 0 0 0.5
1 0 0 0.5
1 0 0 0.5
1 0 0 0.5
1 0 0 0.5
1 0 0 0.5
1 0 0 0.5
1 0 0 0.5
1 0 0 0.5
1 0 0 0.5
1 0 0 0.5
1 0 0 0.5
1 0 0 0.5
1 0 0 0.5
1 0 0 0.5
1 0 0 0.5
1 0 0 0.5
1 0 0 0.5
1 0 0 0.5
1 0 0 0.5
1 0 0 0.5
1 0 0 0.5
1 0 0 0.5
1 0 0 0.5
1 0 0 0.5
1 0 0 0.5
1 0 0 0.5
1 0 0 0.5
1 0 0 0.5
1 0 0 0.5
1 0 0 0.5
1 0 0 0.5
1 0 0 0.5
1 0 0 0.5
1 0 0 0.5
1 0 0 0.5
1 0 0 0.5
1 0 0 0.5
1 0 0 0.5
1 0 0 0.5
1 0 0 0.5
1 0 0 0.5
1 0 0 0.5
1 0 0 0.5
1 0 0 0.5
1 0 0 0.5
1 0 0 0.5
1 0 0 0.5
1 0 0 0.5
1 0 0 0.5
1 0 0 0.5
1 0 0 0.5
1 0 0 0.5
1 0 0 0.5
1 0 0 0.5
1 0 0 0.5
1 0 0 0.5
1 0 0 0.5
1 0 0 0.5
1 0 0 0.5
1 0 0 0.5
1 0 0 0.5
1 0 0 0.5
1 0 0 0.5
1 0 0 0.5
1 0 0 0.5
1 0 0 0.5
1 0 0 0.5
1 0 0 0.5
1 0 0 0.5
1 0 0 0.5
1 0 0 0.5
1 0 0 0.5
1 0 0 0.5
1 0 0 0.5
1 0 0 0.5
1 0 0 0.5
1 0 0 0.5
1 0 0 0.5
1 0 0 0.5
1 0 0 0.5
1 0 0 0.5
1 0 0 0.5
1 0 0 0.5
1 0 0 0.5
1 0 0 0.5
1 0 0 0.5
1 0 0 0.5
1 0 0 0.5
1 0 0 0.5
1 0 0 0.5
1 0 0 0.5
1 0 0 0.5
1 0 0 0.5
1 0 0 0.5
1 0 0 0.5
1 0 0 0.5
1 0 0 0.5
1 0 0 0.5
1 0 0 0.5
1 0 0 0.5
1 0 0 0.5
1 0 0 0.5
1 0 0 0.5
1 0 0 0.5
1 0 0 0.5
1 0 0 0.5
1 0 0 0.5
1 0 0 0.5
1 0 0 0.5
1 0 0 0.5
1 0 0 0.5
1 0 0 0.5
1 0 0 0.5
1 0 0 0.5
1 0 0 0.5
1 0 0 0.5
1 0 0 0.5
1 0 0 0.5
1 0 0 0.5
1 0 0 0.5
1 0 0 0.5
1 0 0 0.5
1 0 0 0.5
1 0 0 0.5
1 0 0 0.5
1 0 0 0.5
1 0 0 0.5
1 0 0 0.5
1 0 0 0.5
1 0 0 0.5
1 0 0 0.5
1 0 0 0.5
1 0 0 0.5
1 0 0 0.5
1 0 0 0.5
1 0 0 0.5
1 0 0 0.5
1 0 0 0.5
1 0 0 0.5
1 0 0 0.5
1 0 0 0.5
1 0 0 0.5
1 0 0 0.5
1 0 0 0.5
1 0 0 0.5
1 0 0 0.5
1 0 0 0.5
1 0 0 0.5
1 0 0 0.5
1 0 0 0.5
1 0 0 0.5
1 0 0 0.5
1 0 0 0.5
1 0 0 0.5
1 0 0 0.5
1 0 0 0.5
1 0 0 0.5
1 0 0 0.5
1 0 0 0.5
1 0 0 0.5
1 0 0 0.5
1 0 0 0.5
1 0 0 0.5
1 0 0 0.5
1 0 0 0.5
1 0 0 0.5
1 0 0 0.5
1 0 0 0.5
1 0 0 0.5
1 0 0 0.5
1 0 0 0.5
1 0 0 0.5
1 0 0 0.5
1 0 0 0.5
1 0 0 0.5
1 0 0 0.5
1 0 0 0.5
1 0 0 0.5
1 0 0 0.5
1 0 0 0.5
1 0 0 0.5
1 0 0 0.5
1 0 0 0.5
1 0 0 0.5
1 0 0 0.5
1 0 0 0.5
1 0 0 0.5
1 0 0 0.5
1 0 0 0.5
1 0 0 0.5
1 0 0 0.5
1 0 0 0.5
1 0 0 0.5
1 0 0 0.5
1 0 0 0.5
1 0 0 0.5
1 0 0 0.5
1 0 0 0.5
1 0 0 0.5
1 0 0 0.5
1 0 0 0.5
1 0 0 0.5
1 0 0 0.5
1 0 0 0.5
1 0 0 0.5
1 0 0 0.5
1 0 0 0.5
1 0 0 0.5
1 0 0 0.5
1 0 0 0.5
1 0 0 0.5
1 0 0 0.5
1 0 0 0.5
1 0 0 0.5
1 0 0 0.5
1 0 0 0.5
1 0 0 0.5
1 0 0 0.5
1 0 0 0.5
1 0 0 0.5
1 0 0 0.5
1 0 0 0.5
1 0 0 0.5
1 0 0 0.5
1 0 0 0.5
1 0 0 0.5
1 0 0 0.5
1 0 0 0.5
1 0 0 0.5
1 0 0 0.5
1 0 0 0.5
1 0 0 0.5
1 0 0 0.5
1 0 0 0.5
1 0 0 0.5
1 0 0 0.5
1 0 0 0.5
1 0 0 0.5
1 0 0 0.5
1 0 0 0.5
1 0 0 0.5
1 0 0 0.5
1 0 0 0.5
1 0 0 0.5
1 0 0 0.5
1 0 0 0.5
1 0 0 0.5
1 0 0 0.5
1 0 0 0.5
1 0 0 0.5
1 0 0 0.5
1 0 0 0.5
1 0 0 0.5
1 0 0 0.5
1 0 0 0.5
1 0 0 0.5
1 0 0 0.5
1 0 0 0.5
1 0 0 0.5
1 0 0 0.5
1 0 0 0.5
1 0 0 0.5
1 0 0 0.5
1 0 0 0.5
1 0 0 0.5
1 0 0 0.5
1 0 0 0.5
1 0 0 0.5
1 0 0 0.5
1 0 0 0.5
1 0 0 0.5
1 0 0 0.5
1 0 0 0.5
1 0 0 0.5
1 0 0 0.5
1 0 0 0.5
1 0 0 0.5
1 0 0 0.5
1 0 0 0.5
1 0 0 0.5
1 0 0 0.5
1 0 0 0.5
1 0 0 0.5
1 0 0 0.5
1 0 0 0.5
1 0 0 0.5
1 0 0 0.5
1 0 0 0.5
1 0 0 0.5
1 0 0 0.5
1 0 0 0.5
1 0 0 0.5
1 0 0 0.5
1 0 0 0.5
1 0 0 0.5
1 0 0 0.5
1 0 0 0.5
1 0 0 0.5
1 0 0 0.5
1 0 0 0.5
1 0 0 0.5
1 0 0 0.5
1 0 0 0.5
1 0 0 0.5
1 0 0 0.5
1 0 0 0.5
1 0 0 0.5
1 0 0 0.5
1 0 0 0.5
1 0 0 0.5
1 0 0 0.5
1 0 0 0.5
1 0 0 0.5
1 0 0 0.5
1 0 0 0.5
1 0 0 0.5
1 0 0 0.5
1 0 0 0.5
1 0 0 0.5
1 0 0 0.5
1 0 0 0.5
1 0 0 0.5
1 0 0 0.5
1 0 0 0.5
1 0 0 0.5
1 0 0 0.5
1 0 0 0.5
1 0 0 0.5
1 0 0 0.5
1 0 0 0.5
1 0 0 0.5
1 0 0 0.5
1 0 0 0.5
1 0 0 0.5
1 0 0 0.5
1 0 0 0.5
1 0 0 0.5
1 0 0 0.5
1 0 0 0.5
1 0 0 0.5
1 0 0 0.5
1 0 0 0.5
1 0 0 0.5
1 0 0 0.5
1 0 0 0.5
1 0 0 0.5
1 0 0 0.5
1 0 0 0.5
1 0 0 0.5
1 0 0 0.5
1 0 0 0.5
1 0 0 0.5
1 0 0 0.5
1 0 0 0.5
1 0 0 0.5
1 0 0 0.5
1 0 0 0.5
1 0 0 0.5
1 0 0 0.5
1 0 0 0.5
1 0 0 0.5
1 0 0 0.5
1 0 0 0.5
1 0 0 0.5
1 0 0 0.5
1 0 0 0.5
1 0 0 0.5
1 0 0 0.5
1 0 0 0.5
1 0 0 0.5
1 0 0 0.5
1 0 0 0.5
1 0 0 0.5
1 0 0 0.5
1 0 0 0.5
1 0 0 0.5
1 0 0 0.5
1 0 0 0.5
1 0 0 0.5
1 0 0 0.5
1 0 0 0.5
1 0 0 0.5
1 0 0 0.5
1 0 0 0.5
1 0 0 0.5
1 0 0 0.5
1 0 0 0.5
1 0 0 0.5
1 0 0 0.5
1 0 0 0.5
1 0 0 0.5
1 0 0 0.5
1 0 0 0.5
1 0 0 0.5
1 0 0 0.5
1 0 0 0.5
1 0 0 0.5
1 0 0 0.5
1 0 0 0.5
1 0 0 0.5
1 0 0 0.5
1 0 0 0.5
1 0 0 0.5
1 0 0 0.5
1 0 0 0.5
1 0 0 0.5
1 0 0 0.5
1 0 0 0.5
1 0 0 0.5
1 0 0 0.5
1 0 0 0.5
1 0 0 0.5
1 0 0 0.5
1 0 0 0.5
1 0 0 0.5
1 0 0 0.5
1 0 0 0.5
1 0 0 0.5
1 0 0 0.5
1 0 0 0.5
1 0 0 0.5
1 0 0 0.5
1 0 0 0.5
1 0 0 0.5
1 0 0 0.5
1 0 0 0.5
1 0 0 0.5
1 0 0 0.5
1 0 0 0.5
1 0 0 0.5
1 0 0 0.5
1 0 0 0.5
1 0 0 0.5
1 0 0 0.5
1 0 0 0.5
1 0 0 0.5
1 0 0 0.5
1 0 0 0.5
1 0 0 0.5
1 0 0 0.5
1 0 0 0.5
1 0 0 0.5
1 0 0 0.5
1 0 0 0.5
1 0 0 0.5
1 0 0 0.5
1 0 0 0.5
1 0 0 0.5
1 0 0 0.5
1 0 0 0.5
1 0 0 0.5
1 0 0 0.5
1 0 0 0.5
1 0 0 0.5
1 0 0 0.5
1 0 0 0.5
1 0 0 0.5
1 0 0 0.5
1 0 0 0.5
1 0 0 0.5
1 0 0 0.5
1 0 0 0.5
1 0 0 0.5
1 0 0 0.5
1 0 0 0.5
1 0 0 0.5
1 0 0 0.5
1 0 0 0.5
1 0 0 0.5
1 0 0 0.5

