# vtk DataFile Version 3.0
Gocad TSurf to VTK
ASCII
DATASET POLYDATA
POINTS 334 float
21614334.000 4590509.500 471.567
21614352.000 4590490.000 470.075
21614126.000 4590035.000 -1007.258
21615520.000 4588593.000 -1043.699
21613660.000 4590515.500 -1007.258
21613916.000 4589554.000 -2504.839
21614328.000 4590515.500 472.030
21613900.000 4591000.500 467.544
21613804.000 4591106.500 460.750
21614220.000 4590642.500 481.681
21614066.000 4590822.000 486.344
21613758.000 4591138.000 417.530
21613636.000 4591218.500 306.322
21613472.000 4591328.500 154.292
21613400.000 4591375.500 88.990
21613372.000 4591395.000 62.616
21613348.000 4591410.500 40.897
21613308.000 4591436.500 4.855
21613276.000 4591459.000 -26.236
21613062.000 4591601.500 -222.878
21613056.000 4591604.000 -226.557
21613056.000 4591604.500 -227.115
21613048.000 4591610.000 -234.520
21613046.000 4591611.000 -236.458
21612916.000 4591693.500 -364.754
21612896.000 4591707.000 -385.485
21612828.000 4591749.500 -451.663
21612822.000 4591753.000 -456.647
21612800.000 4591761.000 -470.303
21612210.000 4591968.000 -810.068
21612120.000 4591777.500 -1105.797
21612208.000 4591968.500 -811.056
21612986.000 4590515.500 -2504.839
21611958.000 4591357.000 -2570.531
21612312.000 4590515.500 -4002.419
21611284.000 4592692.000 -1892.775
21610888.000 4593011.000 -2365.678
21611864.000 4592164.000 -1112.758
21611872.000 4592156.000 -1101.000
21611974.000 4592074.000 -979.656
21612016.000 4592040.000 -927.623
21612026.000 4592033.000 -916.610
21612034.000 4592030.000 -912.178
21612036.000 4592029.500 -910.965
21612072.000 4592017.000 -890.513
21612084.000 4592012.500 -882.835
21612100.000 4592007.000 -874.244
21610770.000 4593068.500 -2575.172
21610730.000 4593088.000 -2645.463
21610696.000 4593108.500 -2711.008
21610410.000 4593277.000 -3251.796
21611796.000 4590936.000 -4035.266
21609966.000 4593427.000 -3969.881
21611690.000 4590659.000 -5000.000
21611862.000 4590515.500 -5000.000
21610666.000 4592038.000 -5000.000
21609682.000 4593581.500 -4493.210
21610234.000 4592631.000 -5000.000
21609930.000 4593447.000 -4037.586
21609548.000 4593667.000 -4755.213
21609698.000 4593368.000 -5000.000
21609422.000 4593746.500 -5000.000
21613100.000 4589235.000 -5000.000
21613704.000 4589073.500 -4002.419
21613564.000 4588753.500 -5000.000
21614168.000 4588593.000 -4014.566
21614844.000 4588593.000 -2529.133
21615540.000 4587144.000 -2529.133
21615868.000 4587868.500 -1043.699
21616194.000 4588593.000 441.734
21616912.000 4585695.500 -1146.988
21616236.000 4585695.500 -2597.992
21617586.000 4585695.500 304.016
21617568.000 4585732.500 305.764
21617114.000 4585117.500 -1146.988
21617604.000 4585644.500 304.055
21617648.000 4585516.500 301.537
21617590.000 4585685.500 304.858
21617586.000 4585695.500 305.063
21617810.000 4585056.000 303.110
21617922.000 4584740.000 304.627
21618078.000 4584293.500 299.842
21618170.000 4584031.500 301.305
21618350.000 4583523.000 304.623
21618372.000 4583462.000 304.142
21618386.000 4583424.500 304.758
21618400.000 4583384.500 305.446
21617724.000 4583384.000 -1145.644
21616644.000 4584540.000 -2597.992
21618400.000 4583384.000 305.453
21618178.000 4582736.500 -1145.644
21617050.000 4583384.000 -2597.096
21618400.000 4583384.000 305.455
21618400.000 4583383.500 305.462
21619536.000 4580794.000 -1047.542
21618862.000 4580794.000 -2531.695
21618694.000 4582953.000 310.954
21619000.000 4582514.000 331.967
21619008.000 4582502.000 332.382
21619390.000 4581958.500 362.237
21619468.000 4581849.500 369.219
21619726.000 4581488.000 401.566
21619958.000 4581157.500 418.257
21619564.000 4581718.500 387.418
21620204.000 4580794.000 418.875
21619886.000 4581261.000 415.488
21619794.000 4580245.000 -1047.542
21620040.000 4581038.000 421.452
21620208.000 4580787.500 418.906
21620242.000 4580713.000 419.216
21620466.000 4580245.000 418.149
21620516.000 4580132.000 413.149
21620594.000 4579960.500 404.092
21620776.000 4579555.000 380.031
21620892.000 4579313.000 380.148
21621046.000 4578984.000 373.900
21621234.000 4578600.500 385.602
21620564.000 4578597.000 -1083.434
21619376.000 4579695.500 -2531.695
21621236.000 4578597.000 385.712
21620722.000 4577813.000 -1083.434
21619888.000 4578597.000 -2555.623
21621236.000 4578595.500 385.759
21621282.000 4578375.500 392.257
21621292.000 4578324.500 393.402
21621308.000 4578245.000 396.510
21621348.000 4578052.500 403.909
21621788.000 4575889.500 464.094
21621818.000 4575738.500 465.823
21621580.000 4576917.000 437.576
21621746.000 4576112.000 461.545
21621434.000 4577644.500 419.551
21621512.000 4577271.500 434.420
21621692.000 4576375.000 455.909
21621860.000 4575533.500 470.581
21621870.000 4575472.500 468.476
21621872.000 4575461.000 468.086
21621200.000 4575461.000 -1017.988
21620208.000 4577029.000 -2555.623
21621874.000 4575456.500 467.940
21621352.000 4574673.500 -1017.988
21620526.000 4575461.000 -2511.992
21621952.000 4575019.500 453.089
21621960.000 4574974.000 451.181
21622024.000 4574552.500 412.366
21622034.000 4574490.000 406.750
21622036.000 4574482.500 406.171
21622098.000 4574095.500 376.829
21622144.000 4573844.000 371.491
21622214.000 4573498.500 373.896
21622318.000 4573002.500 391.526
21622326.000 4572960.500 391.721
21622446.000 4572381.500 405.407
21621804.000 4572311.000 -1038.002
21620828.000 4573886.000 -2511.992
21622460.000 4572311.000 404.877
21622462.000 4572304.500 404.409
21622454.000 4572348.500 406.186
21622456.000 4572330.000 406.261
21622464.000 4572292.500 403.627
21621956.000 4571709.000 -1038.002
21621130.000 4572311.000 -2525.335
21622622.000 4571653.500 362.255
21622724.000 4571244.000 336.495
21622764.000 4571090.500 329.196
21622848.000 4570767.500 319.892
21622910.000 4570536.500 314.689
21622952.000 4570382.000 312.376
21623064.000 4569970.500 307.780
21623082.000 4569903.500 305.109
21622408.000 4569903.500 -1146.168
21623072.000 4569940.500 307.312
21623080.000 4569917.000 306.954
21623082.000 4569903.500 306.741
21623078.000 4569887.500 306.301
21623066.000 4569838.000 304.914
21622000.000 4568173.000 -1151.327
21623028.000 4569677.500 300.419
21622948.000 4569345.000 299.089
21622858.000 4568961.000 297.838
21622812.000 4568763.000 297.782
21622770.000 4568585.000 297.322
21622670.000 4568151.000 298.409
21622610.000 4567894.000 297.523
21622562.000 4567696.000 296.621
21622540.000 4567597.000 295.880
21622538.000 4567596.000 295.873
21621864.000 4567596.000 -1151.327
21621190.000 4567596.000 -2600.885
21622538.000 4567592.000 295.848
21621702.000 4565206.500 -1109.734
21621080.000 4566003.000 -2573.156
21622494.000 4567023.000 292.277
21622492.000 4567005.500 292.152
21622490.000 4566992.500 292.021
21622470.000 4566678.500 300.203
21622428.000 4566015.000 317.605
21622416.000 4565797.500 329.540
21622322.000 4564410.000 353.688
21622426.000 4565955.000 322.550
21622428.000 4565987.500 320.638
21621648.000 4564410.000 -1109.734
21622376.000 4565114.000 355.618
21622348.000 4564664.000 367.131
21622384.000 4565225.000 354.946
21622326.000 4564409.000 363.420
21622144.000 4563856.000 352.238
21620748.000 4561615.000 -1117.047
21622258.000 4564195.000 362.688
21622200.000 4564020.000 360.474
21622092.000 4563703.000 344.569
21621980.000 4563357.500 342.078
21621914.000 4563157.000 342.697
21621872.000 4563011.500 350.029
21621122.000 4560683.000 343.938
21620448.000 4560683.000 -1117.047
21621762.000 4562641.000 368.731
21621528.000 4561902.000 375.209
21621332.000 4561307.000 363.885
21621596.000 4562112.000 378.027
21621216.000 4560955.000 357.992
21621124.000 4560682.000 350.092
21621290.000 4561175.500 364.370
21620994.000 4560523.500 345.817
21620530.000 4559947.500 350.414
21620854.000 4560345.000 355.473
21620458.000 4559859.000 349.286
21620392.000 4559778.000 351.109
21619968.000 4559252.000 356.010
21619968.000 4559251.500 356.027
21619968.000 4559251.500 356.028
21619582.000 4559609.000 -1107.592
21619772.000 4560683.000 -2578.031
21619968.000 4559251.000 356.038
21619292.000 4559251.000 -1107.592
21619196.000 4559967.000 -2571.728
21619968.000 4559251.000 356.043
21619184.000 4559090.000 -1057.999
21619968.000 4559251.000 356.046
21618510.000 4559089.500 -2522.310
21618618.000 4559251.000 -2571.728
21617944.000 4559251.000 -4035.864
21617836.000 4559089.500 -3986.448
21618808.000 4560325.000 -4035.864
21618554.000 4560560.500 -5000.000
21618258.000 4560194.000 -5000.000
21618652.000 4560683.000 -5000.000
21619096.000 4560683.000 -4039.016
21618960.000 4561639.500 -5000.000
21620372.000 4562546.500 -2578.031
21619996.000 4563478.000 -4039.016
21620972.000 4564410.000 -2573.156
21620296.000 4564410.000 -4036.578
21620460.000 4566799.500 -4036.578
21619852.000 4564410.000 -5000.000
21619750.000 4564091.000 -5000.000
21619908.000 4565226.500 -5000.000
21620052.000 4567324.000 -5000.000
21620074.000 4567596.000 -5000.000
21620516.000 4567596.000 -4050.442
21620214.000 4568193.000 -5000.000
21621460.000 4568750.000 -2600.885
21620922.000 4569326.500 -4050.442
21621732.000 4569903.500 -2597.445
21621432.000 4571107.000 -2525.335
21620906.000 4570505.500 -4012.667
21620456.000 4572311.000 -4012.667
21620304.000 4573098.500 -4005.996
21620008.000 4572311.000 -5000.000
21620158.000 4571704.000 -5000.000
21619956.000 4572574.500 -5000.000
21619554.000 4574670.500 -5000.000
21619402.000 4575461.000 -5000.000
21619852.000 4575461.000 -4005.996
21619352.000 4575727.500 -5000.000
21619692.000 4576245.000 -4027.812
21619212.000 4578597.000 -4027.812
21618766.000 4578597.000 -5000.000
21618930.000 4577798.000 -5000.000
21618678.000 4578782.000 -5000.000
21618956.000 4579146.000 -4015.847
21617998.000 4580239.000 -5000.000
21618188.000 4580794.000 -4015.847
21617740.000 4580794.000 -5000.000
21617588.000 4581017.000 -5000.000
21617734.000 4581441.500 -4048.548
21616734.000 4582238.500 -5000.000
21617956.000 4582089.000 -2597.096
21616376.000 4583384.000 -4048.548
21616172.000 4583962.000 -4048.996
21615862.000 4583583.000 -5000.000
21615560.000 4585695.500 -4048.996
21615118.000 4585695.500 -5000.000
21615174.000 4585539.000 -5000.000
21614996.000 4585939.500 -5000.000
21615212.000 4586420.000 -4014.566
21614072.000 4587861.500 -5000.000
21613720.000 4588593.000 -5000.000
21615330.000 4585098.000 -5000.000
21615932.000 4583384.000 -5000.000
21616400.000 4582715.000 -5000.000
21620316.000 4571077.500 -5000.000
21620558.000 4570106.000 -5000.000
21621056.000 4569903.500 -4048.723
21620614.000 4569903.500 -5000.000
21620568.000 4569704.500 -5000.000
21620538.000 4569579.000 -5000.000
21617498.000 4559251.000 -5000.000
21617456.000 4559197.500 -5000.000
21617400.000 4559129.000 -5000.000
21619964.000 4559247.000 356.207
21619864.000 4559120.500 361.921
21617526.000 4585816.500 307.380
21617252.000 4586374.000 317.977
21617188.000 4586507.000 325.991
21617110.000 4586661.500 325.610
21616894.000 4587119.500 354.391
21616734.000 4587446.500 364.917
21616580.000 4587777.000 388.804
21616376.000 4588198.500 407.503
21616272.000 4588431.500 434.065
21616258.000 4588462.000 437.521
21616198.000 4588583.500 441.890
21616194.000 4588593.000 442.240
21616192.000 4588596.000 442.126
21616186.000 4588601.500 441.945
21615868.000 4588922.000 430.689
21615858.000 4588932.000 430.645
21615850.000 4588939.500 430.631
21615418.000 4589376.500 421.849
21615184.000 4589618.500 427.608
21615006.000 4589799.000 425.146
21614754.000 4590065.000 442.170
21614554.000 4590275.500 453.550

POLYGONS 415 1660
3 127 128 120
3 185 186 176
3 262 260 306
3 213 216 214
3 161 266 267
3 113 114 106
3 267 273 154
3 305 262 306
3 241 243 240
3 215 231 232
3 201 249 251
3 138 121 120
3 196 200 199
3 173 174 169
3 331 330 3
3 30 45 46
3 212 213 207
3 297 295 296
3 196 199 197
3 235 243 247
3 79 80 74
3 280 282 118
3 89 90 87
3 144 145 140
3 289 288 290
3 295 65 67
3 179 180 176
3 57 56 55
3 208 209 206
3 303 262 304
3 143 144 140
3 267 270 271
3 321 320 69
3 72 75 74
3 136 139 137
3 30 31 29
3 90 95 287
3 188 261 176
3 33 51 50
3 259 262 261
3 4 13 12
3 30 40 41
3 206 210 207
3 166 167 160
3 186 187 176
3 197 202 198
3 218 220 214
3 189 192 190
3 172 173 169
3 273 272 274
3 5 66 65
3 126 127 120
3 217 218 214
3 152 153 140
3 91 288 289
3 189 190 187
3 51 58 52
3 100 101 94
3 276 275 277
3 100 103 101
3 61 59 60
3 265 303 302
3 232 235 247
3 214 224 215
3 275 274 278
3 151 152 140
3 183 184 176
3 223 225 224
3 201 251 190
3 174 175 169
3 287 282 285
3 188 253 259
3 215 232 207
3 54 34 62
3 1 333 3
3 330 329 3
3 4 17 16
3 147 148 140
3 65 295 297
3 148 149 140
3 275 273 274
3 45 30 44
3 289 291 88
3 120 121 117
3 126 131 129
3 250 247 248
3 170 176 261
3 90 94 95
3 251 252 191
3 106 95 94
3 213 214 207
3 4 15 14
3 163 164 160
3 4 25 24
3 220 221 214
3 149 150 140
3 4 16 15
3 4 26 25
3 210 211 207
3 77 75 72
3 328 327 3
3 295 291 294
3 320 319 68
3 237 239 234
3 11 4 12
3 83 84 74
3 247 243 246
3 205 208 206
3 287 288 91
3 319 318 68
3 118 95 106
3 195 196 190
3 145 146 140
3 252 253 191
3 171 172 169
3 131 132 129
3 58 51 56
3 230 233 231
3 201 207 249
3 33 48 47
3 287 95 282
3 310 311 237
3 128 134 120
3 322 321 69
3 196 197 190
3 30 42 43
3 62 63 64
3 4 24 23
3 264 266 161
3 162 163 160
3 99 100 94
3 55 51 53
3 233 236 234
3 170 263 264
3 59 56 57
3 198 207 201
3 67 71 295
3 60 59 57
3 64 65 297
3 137 141 138
3 92 93 90
3 6 0 4
3 169 176 170
3 284 282 283
3 231 235 232
3 178 179 176
3 329 328 3
3 299 285 300
3 129 133 130
3 96 97 94
3 194 195 190
3 193 194 190
3 264 263 265
3 280 276 279
3 4 14 13
3 74 71 70
3 88 71 74
3 110 111 106
3 223 224 214
3 129 130 127
3 84 85 74
3 192 193 190
3 327 326 3
3 211 212 207
3 168 169 160
3 291 292 294
3 118 282 95
3 88 91 289
3 101 102 94
3 250 248 255
3 4 22 21
3 247 246 248
3 122 123 120
3 114 115 106
3 276 277 279
3 20 4 21
3 227 228 215
3 97 98 94
3 115 116 106
3 5 63 32
3 68 66 3
3 5 32 4
3 241 242 307
3 111 112 106
3 98 99 94
3 159 160 153
3 315 314 68
3 67 65 66
3 232 247 249
3 69 320 68
3 155 156 153
3 1 3 2
3 252 250 254
3 85 86 74
3 139 142 140
3 30 38 39
3 136 137 120
3 177 178 176
3 262 259 260
3 81 82 74
3 224 226 215
3 104 106 94
3 101 105 102
3 234 236 237
3 160 170 264
3 289 290 298
3 326 325 3
3 116 117 106
3 308 242 309
3 302 303 304
3 75 76 74
3 175 177 176
3 68 70 67
3 266 265 268
3 88 291 71
3 26 4 27
3 53 34 54
3 90 91 87
3 206 207 198
3 142 143 140
3 251 250 252
3 272 267 271
3 4 18 17
3 140 141 137
3 333 332 3
3 51 34 53
3 241 307 245
3 123 124 120
3 267 266 270
3 93 94 90
3 152 157 155
3 187 191 188
3 126 129 127
3 89 92 90
3 188 259 261
3 30 41 42
3 82 83 74
3 180 181 176
3 186 189 187
3 5 65 63
3 316 315 68
3 8 7 4
3 67 66 68
3 30 33 35
3 269 265 301
3 35 33 36
3 117 121 118
3 33 34 51
3 238 310 237
3 221 223 214
3 187 188 176
3 153 161 154
3 263 261 262
3 202 203 198
3 203 205 198
3 63 65 64
3 30 37 38
3 242 308 307
3 233 234 231
3 118 121 280
3 31 30 46
3 0 2 4
3 4 19 18
3 4 28 27
3 291 289 292
3 198 201 190
3 241 245 244
3 256 252 254
3 87 91 88
3 134 135 120
3 125 126 120
3 80 81 74
3 33 32 34
3 2 3 66
3 214 215 207
3 263 262 303
3 250 255 254
3 102 104 94
3 258 253 257
3 236 238 237
3 70 71 67
3 273 267 272
3 247 250 249
3 288 285 299
3 181 182 176
3 197 198 190
3 40 30 39
3 232 249 207
3 239 242 241
3 4 29 28
3 283 280 281
3 119 120 117
3 116 119 117
3 275 276 138
3 108 109 106
3 234 235 231
3 63 34 32
3 156 159 153
3 71 291 295
3 170 261 263
3 216 219 217
3 257 253 256
3 285 282 284
3 264 161 160
3 49 33 50
3 154 141 140
3 187 190 191
3 146 147 140
3 33 49 48
3 300 285 286
3 288 299 290
3 73 72 68
3 138 276 121
3 30 35 37
3 323 322 69
3 259 253 258
3 102 107 104
3 109 110 106
3 280 279 281
3 30 4 32
3 270 266 268
3 253 252 256
3 2 5 4
3 325 324 69
3 168 171 169
3 265 302 301
3 188 191 253
3 317 316 68
3 33 47 36
3 197 204 202
3 120 137 138
3 241 240 239
3 69 68 3
3 4 20 19
3 112 113 106
3 226 227 215
3 230 231 215
3 119 122 120
3 78 77 72
3 30 43 44
3 76 79 74
3 154 161 267
3 240 243 235
3 318 317 68
3 72 70 68
3 73 78 72
3 216 217 214
3 72 74 70
3 184 185 176
3 4 30 29
3 240 235 234
3 74 87 88
3 246 243 244
3 304 262 305
3 150 151 140
3 154 273 141
3 93 96 94
3 124 125 120
3 228 229 215
3 141 273 275
3 263 303 265
3 86 89 87
3 205 206 198
3 22 4 23
3 324 323 69
3 106 117 118
3 265 266 264
3 243 241 244
3 287 91 90
3 56 51 55
3 239 240 234
3 251 191 190
3 104 108 106
3 251 249 250
3 165 166 160
3 325 69 3
3 7 9 6
3 7 6 4
3 169 170 160
3 313 312 68
3 152 155 153
3 314 313 68
3 285 288 287
3 8 4 11
3 139 140 137
3 34 63 62
3 164 165 160
3 268 265 269
3 157 158 155
3 260 259 258
3 160 161 153
3 285 284 286
3 312 73 68
3 50 51 52
3 135 136 120
3 282 280 283
3 293 289 298
3 2 66 5
3 7 10 9
3 167 168 160
3 86 87 74
3 295 294 296
3 30 32 33
3 182 183 176
3 277 275 278
3 159 162 160
3 218 222 220
3 332 331 3
3 229 230 215
3 138 141 275
3 175 176 169
3 121 276 280
3 0 1 2
3 140 153 154
3 292 289 293

POINT_DATA 334
COLOR_SCALARS GocadColor 4
1 0 0 0.5
1 0 0 0.5
1 0 0 0.5
1 0 0 0.5
1 0 0 0.5
1 0 0 0.5
1 0 0 0.5
1 0 0 0.5
1 0 0 0.5
1 0 0 0.5
1 0 0 0.5
1 0 0 0.5
1 0 0 0.5
1 0 0 0.5
1 0 0 0.5
1 0 0 0.5
1 0 0 0.5
1 0 0 0.5
1 0 0 0.5
1 0 0 0.5
1 0 0 0.5
1 0 0 0.5
1 0 0 0.5
1 0 0 0.5
1 0 0 0.5
1 0 0 0.5
1 0 0 0.5
1 0 0 0.5
1 0 0 0.5
1 0 0 0.5
1 0 0 0.5
1 0 0 0.5
1 0 0 0.5
1 0 0 0.5
1 0 0 0.5
1 0 0 0.5
1 0 0 0.5
1 0 0 0.5
1 0 0 0.5
1 0 0 0.5
1 0 0 0.5
1 0 0 0.5
1 0 0 0.5
1 0 0 0.5
1 0 0 0.5
1 0 0 0.5
1 0 0 0.5
1 0 0 0.5
1 0 0 0.5
1 0 0 0.5
1 0 0 0.5
1 0 0 0.5
1 0 0 0.5
1 0 0 0.5
1 0 0 0.5
1 0 0 0.5
1 0 0 0.5
1 0 0 0.5
1 0 0 0.5
1 0 0 0.5
1 0 0 0.5
1 0 0 0.5
1 0 0 0.5
1 0 0 0.5
1 0 0 0.5
1 0 0 0.5
1 0 0 0.5
1 0 0 0.5
1 0 0 0.5
1 0 0 0.5
1 0 0 0.5
1 0 0 0.5
1 0 0 0.5
1 0 0 0.5
1 0 0 0.5
1 0 0 0.5
1 0 0 0.5
1 0 0 0.5
1 0 0 0.5
1 0 0 0.5
1 0 0 0.5
1 0 0 0.5
1 0 0 0.5
1 0 0 0.5
1 0 0 0.5
1 0 0 0.5
1 0 0 0.5
1 0 0 0.5
1 0 0 0.5
1 0 0 0.5
1 0 0 0.5
1 0 0 0.5
1 0 0 0.5
1 0 0 0.5
1 0 0 0.5
1 0 0 0.5
1 0 0 0.5
1 0 0 0.5
1 0 0 0.5
1 0 0 0.5
1 0 0 0.5
1 0 0 0.5
1 0 0 0.5
1 0 0 0.5
1 0 0 0.5
1 0 0 0.5
1 0 0 0.5
1 0 0 0.5
1 0 0 0.5
1 0 0 0.5
1 0 0 0.5
1 0 0 0.5
1 0 0 0.5
1 0 0 0.5
1 0 0 0.5
1 0 0 0.5
1 0 0 0.5
1 0 0 0.5
1 0 0 0.5
1 0 0 0.5
1 0 0 0.5
1 0 0 0.5
1 0 0 0.5
1 0 0 0.5
1 0 0 0.5
1 0 0 0.5
1 0 0 0.5
1 0 0 0.5
1 0 0 0.5
1 0 0 0.5
1 0 0 0.5
1 0 0 0.5
1 0 0 0.5
1 0 0 0.5
1 0 0 0.5
1 0 0 0.5
1 0 0 0.5
1 0 0 0.5
1 0 0 0.5
1 0 0 0.5
1 0 0 0.5
1 0 0 0.5
1 0 0 0.5
1 0 0 0.5
1 0 0 0.5
1 0 0 0.5
1 0 0 0.5
1 0 0 0.5
1 0 0 0.5
1 0 0 0.5
1 0 0 0.5
1 0 0 0.5
1 0 0 0.5
1 0 0 0.5
1 0 0 0.5
1 0 0 0.5
1 0 0 0.5
1 0 0 0.5
1 0 0 0.5
1 0 0 0.5
1 0 0 0.5
1 0 0 0.5
1 0 0 0.5
1 0 0 0.5
1 0 0 0.5
1 0 0 0.5
1 0 0 0.5
1 0 0 0.5
1 0 0 0.5
1 0 0 0.5
1 0 0 0.5
1 0 0 0.5
1 0 0 0.5
1 0 0 0.5
1 0 0 0.5
1 0 0 0.5
1 0 0 0.5
1 0 0 0.5
1 0 0 0.5
1 0 0 0.5
1 0 0 0.5
1 0 0 0.5
1 0 0 0.5
1 0 0 0.5
1 0 0 0.5
1 0 0 0.5
1 0 0 0.5
1 0 0 0.5
1 0 0 0.5
1 0 0 0.5
1 0 0 0.5
1 0 0 0.5
1 0 0 0.5
1 0 0 0.5
1 0 0 0.5
1 0 0 0.5
1 0 0 0.5
1 0 0 0.5
1 0 0 0.5
1 0 0 0.5
1 0 0 0.5
1 0 0 0.5
1 0 0 0.5
1 0 0 0.5
1 0 0 0.5
1 0 0 0.5
1 0 0 0.5
1 0 0 0.5
1 0 0 0.5
1 0 0 0.5
1 0 0 0.5
1 0 0 0.5
1 0 0 0.5
1 0 0 0.5
1 0 0 0.5
1 0 0 0.5
1 0 0 0.5
1 0 0 0.5
1 0 0 0.5
1 0 0 0.5
1 0 0 0.5
1 0 0 0.5
1 0 0 0.5
1 0 0 0.5
1 0 0 0.5
1 0 0 0.5
1 0 0 0.5
1 0 0 0.5
1 0 0 0.5
1 0 0 0.5
1 0 0 0.5
1 0 0 0.5
1 0 0 0.5
1 0 0 0.5
1 0 0 0.5
1 0 0 0.5
1 0 0 0.5
1 0 0 0.5
1 0 0 0.5
1 0 0 0.5
1 0 0 0.5
1 0 0 0.5
1 0 0 0.5
1 0 0 0.5
1 0 0 0.5
1 0 0 0.5
1 0 0 0.5
1 0 0 0.5
1 0 0 0.5
1 0 0 0.5
1 0 0 0.5
1 0 0 0.5
1 0 0 0.5
1 0 0 0.5
1 0 0 0.5
1 0 0 0.5
1 0 0 0.5
1 0 0 0.5
1 0 0 0.5
1 0 0 0.5
1 0 0 0.5
1 0 0 0.5
1 0 0 0.5
1 0 0 0.5
1 0 0 0.5
1 0 0 0.5
1 0 0 0.5
1 0 0 0.5
1 0 0 0.5
1 0 0 0.5
1 0 0 0.5
1 0 0 0.5
1 0 0 0.5
1 0 0 0.5
1 0 0 0.5
1 0 0 0.5
1 0 0 0.5
1 0 0 0.5
1 0 0 0.5
1 0 0 0.5
1 0 0 0.5
1 0 0 0.5
1 0 0 0.5
1 0 0 0.5
1 0 0 0.5
1 0 0 0.5
1 0 0 0.5
1 0 0 0.5
1 0 0 0.5
1 0 0 0.5
1 0 0 0.5
1 0 0 0.5
1 0 0 0.5
1 0 0 0.5
1 0 0 0.5
1 0 0 0.5
1 0 0 0.5
1 0 0 0.5
1 0 0 0.5
1 0 0 0.5
1 0 0 0.5
1 0 0 0.5
1 0 0 0.5
1 0 0 0.5
1 0 0 0.5
1 0 0 0.5
1 0 0 0.5
1 0 0 0.5
1 0 0 0.5
1 0 0 0.5
1 0 0 0.5
1 0 0 0.5
1 0 0 0.5
1 0 0 0.5
1 0 0 0.5
1 0 0 0.5
1 0 0 0.5
1 0 0 0.5
1 0 0 0.5
1 0 0 0.5
1 0 0 0.5
1 0 0 0.5
1 0 0 0.5
1 0 0 0.5
1 0 0 0.5
1 0 0 0.5
1 0 0 0.5
1 0 0 0.5
1 0 0 0.5
1 0 0 0.5
1 0 0 0.5
1 0 0 0.5
1 0 0 0.5
1 0 0 0.5

