# vtk DataFile Version 3.0
Gocad TSurf to VTK
ASCII
DATASET POLYDATA
POINTS 195 float
21602950.000 4594427.500 316.250
21602900.000 4594730.000 320.000
21602900.000 4594740.000 320.000
21602400.000 4594090.000 -235.000
21602750.000 4593795.000 35.000
21602400.000 4593817.500 -246.250
21603000.000 4594115.000 312.500
21603075.000 4593197.500 298.750
21603100.000 4593500.000 305.000
21602375.000 4593210.000 -321.250
21602400.000 4593000.000 -280.000
21602700.000 4592645.000 0.000
21602350.000 4592752.500 -290.000
21603050.000 4592895.000 292.500
21603025.000 4592592.500 286.250
21602850.000 4592467.500 140.000
21603025.000 4592590.000 286.250
21603000.000 4592290.000 280.000
21602200.000 4592010.000 -320.000
21602250.000 4592257.500 -310.000
21602475.000 4591935.000 -166.250
21602275.000 4591545.000 -353.750
21603075.000 4592145.000 283.750
21602750.000 4591860.000 -12.500
21603075.000 4592145.000 283.750
21603150.000 4592000.000 287.500
21603225.000 4591855.000 291.250
21603300.000 4591710.000 295.000
21602300.000 4591390.000 -365.000
21602600.000 4591365.000 -197.500
21602200.000 4591217.500 -480.000
21603350.000 4591605.000 297.500
21602900.000 4591340.000 -30.000
21602000.000 4590872.500 -710.000
21603400.000 4591500.000 300.000
21603450.000 4591395.000 302.500
21603500.000 4591290.000 305.000
21601900.000 4590700.000 -825.000
21603275.000 4591040.000 92.500
21602425.000 4590392.500 -615.000
21603575.000 4591190.000 322.500
21603650.000 4591090.000 340.000
21602825.000 4590540.000 -332.500
21603725.000 4590990.000 357.500
21603800.000 4590890.000 375.000
21603350.000 4590320.000 -77.500
21604025.000 4590485.000 386.250
21602825.000 4589742.500 -556.250
21602900.000 4589560.000 -560.000
21602575.000 4590055.000 -611.250
21602525.000 4589585.000 -743.750
21602250.000 4589675.000 -880.000
21602500.000 4589350.000 -810.000
21602375.000 4589512.500 -845.000
21602600.000 4589235.000 -740.000
21602900.000 4589392.500 -552.500
21602700.000 4589120.000 -670.000
21603250.000 4589605.000 -328.750
21603050.000 4589155.000 -432.500
21604096.422 4590346.867 386.976
21604096.203 4590347.500 386.996
21604148.000 4590196.188 382.167
21604096.422 4590346.867 386.976
21604199.781 4590044.898 377.339
21604205.695 4590027.617 376.788
21604250.000 4589892.500 371.250
21603600.000 4589650.000 -97.500
21604250.000 4589892.500 371.250
21604300.000 4589740.000 365.000
21604205.695 4590027.617 376.788
21603750.000 4589080.000 -27.500
21604325.000 4589590.000 357.500
21603100.000 4589020.000 -390.000
21603325.000 4588562.500 -442.500
21602900.000 4589057.500 -537.500
21602900.000 4588890.000 -530.000
21602900.000 4589225.000 -545.000
21602800.000 4589005.000 -600.000
21603025.000 4588770.000 -512.500
21603000.000 4588752.500 -530.000
21603150.000 4588650.000 -495.000
21603200.000 4588477.500 -530.000
21603100.000 4588615.000 -530.000
21603300.000 4588340.000 -530.000
21603475.000 4588270.000 -463.750
21603400.000 4588217.500 -516.250
21604400.000 4589140.000 335.000
21604225.000 4588817.500 132.500
21604375.000 4589290.000 342.500
21604350.000 4589440.000 350.000
21604325.000 4589590.000 357.500
21603875.000 4588172.500 -272.500
21604500.000 4589072.500 345.000
21604518.523 4589060.000 346.852
21604581.102 4588995.547 343.787
21604586.727 4588989.758 343.511
21604667.094 4588906.992 339.574
21604693.773 4588879.516 338.267
21604741.250 4588825.703 333.877
21603700.000 4587850.000 -475.000
21603625.000 4587990.000 -471.250
21604746.188 4588820.102 333.420
21604826.305 4588802.477 328.524
21604875.000 4588677.500 242.500
21604000.000 4587822.500 -450.000
21604913.781 4588805.477 323.942
21605043.555 4588809.930 317.144
21604950.000 4588485.000 110.000
21604850.000 4588305.000 0.000
21605048.516 4588810.102 316.884
21605069.055 4588810.805 315.808
21605175.000 4588787.500 292.500
21605300.000 4588760.000 265.000
21605069.055 4588810.805 315.808
21605069.055 4588810.805 315.808
21605100.000 4588100.000 -155.000
21605475.000 4588567.500 128.750
21605325.000 4588072.500 -186.250
21605600.000 4588810.000 257.500
21605750.000 4588835.000 253.750
21605600.000 4588810.000 257.500
21605825.000 4588182.500 -143.750
21605900.000 4588860.000 250.000
21606150.000 4588227.500 -140.000
21605850.000 4587875.000 -342.500
21606075.000 4588880.000 257.500
21606300.000 4588465.000 0.000
21606250.000 4588900.000 265.000
21606300.000 4588097.500 -266.250
21606100.000 4587800.000 -405.000
21606650.000 4588110.000 -315.000
21606375.000 4587955.000 -360.000
21606900.000 4588312.500 -238.750
21606600.000 4588940.000 280.000
21606900.000 4587905.000 -502.500
21607300.000 4587957.500 -551.250
21606500.000 4587852.500 -453.750
21607200.000 4588420.000 -225.000
21607700.000 4588010.000 -600.000
21606425.000 4588920.000 272.500
21606425.000 4588920.000 272.500
21605800.000 4587785.000 -397.500
21605550.000 4588045.000 -217.500
21605500.000 4587770.000 -390.000
21605200.000 4587755.000 -382.500
21604900.000 4587740.000 -375.000
21604600.000 4587767.500 -400.000
21604300.000 4587795.000 -425.000
21603550.000 4588130.000 -467.500
21603600.000 4587972.500 -488.750
21603500.000 4588095.000 -502.500
21604095.305 4590349.813 387.073
21604074.109 4590396.609 388.705
21602125.000 4589837.500 -915.000
21602000.000 4590000.000 -950.000
21601975.000 4590175.000 -918.750
21601925.000 4590525.000 -856.250
21601925.000 4590147.500 -963.750
21601850.000 4590295.000 -977.500
21601775.000 4590442.500 -991.250
21601700.000 4590590.000 -1005.000
21601750.000 4590757.500 -907.500
21601900.000 4590840.000 -772.500
21601800.000 4590925.000 -810.000
21601900.000 4590980.000 -720.000
21601850.000 4591092.500 -712.500
21601900.000 4591120.000 -667.500
21601900.000 4591260.000 -615.000
21601975.000 4591447.500 -541.250
21602050.000 4591635.000 -467.500
21602125.000 4591822.500 -393.750
21602225.000 4592230.000 -341.250
21602250.000 4592450.000 -362.500
21602275.000 4592670.000 -383.750
21602300.000 4592890.000 -405.000
21602300.000 4593127.500 -415.000
21602300.000 4593365.000 -425.000
21602350.000 4593420.000 -362.500
21602400.000 4593545.000 -257.500
21602300.000 4593602.500 -435.000
21602325.000 4593630.000 -403.750
21602300.000 4593840.000 -445.000
21604100.000 4590350.000 390.000
21604150.000 4590197.500 383.750
21604096.422 4590346.867 386.976
21604148.000 4590196.188 382.167
21604199.781 4590044.898 377.339
21604200.000 4590045.000 377.500
21604205.695 4590027.617 376.788
21604205.695 4590027.617 376.788
21604100.000 4590350.000 390.000
21604096.422 4590346.867 386.976
21604096.203 4590347.500 386.996
21604095.305 4590349.813 387.073
21604074.109 4590396.609 388.705

POLYGONS 262 1048
3 132 133 126
3 93 92 87
3 64 57 65
3 146 145 108
3 87 84 91
3 66 57 58
3 161 162 163
3 56 55 54
3 8 4 9
3 10 8 9
3 122 119 121
3 95 94 91
3 58 74 72
3 79 82 78
3 74 77 75
3 30 166 33
3 165 164 166
3 20 17 18
3 144 143 117
3 162 37 33
3 166 164 33
3 153 51 49
3 27 29 31
3 122 123 125
3 12 173 172
3 58 72 66
3 53 52 50
3 82 80 78
3 134 135 132
3 139 140 127
3 154 49 39
3 48 60 45
3 97 96 91
3 42 44 43
3 138 137 135
3 160 37 161
3 109 106 107
3 42 47 45
3 74 75 72
3 154 153 49
3 167 28 168
3 122 121 123
3 126 127 125
3 171 19 172
3 163 164 165
3 59 60 48
3 15 17 14
3 129 136 131
3 119 116 121
3 110 107 111
3 105 102 103
3 106 103 107
3 129 131 128
3 170 169 21
3 156 155 39
3 77 76 56
3 7 8 10
3 4 178 9
3 66 65 57
3 112 116 118
3 83 85 84
3 171 18 19
3 128 131 130
3 13 11 14
3 67 65 68
3 36 35 32
3 86 70 84
3 80 81 73
3 112 107 115
3 160 159 156
3 11 19 15
3 21 28 23
3 31 32 34
3 107 108 115
3 173 12 174
3 50 48 47
3 167 166 30
3 155 154 39
3 179 177 180
3 117 143 142
3 137 133 132
3 28 27 23
3 51 53 50
3 6 4 7
3 18 170 21
3 14 17 16
3 176 9 177
3 126 128 130
3 157 154 155
3 104 108 103
3 113 110 111
3 22 26 25
3 43 41 42
3 117 142 121
3 85 150 148
3 98 91 99
3 76 74 58
3 78 72 75
3 50 47 49
3 116 117 121
3 121 142 124
3 175 174 10
3 5 3 181
3 178 5 180
3 62 61 57
3 60 151 45
3 81 83 73
3 6 0 4
3 143 141 142
3 8 7 4
3 49 47 42
3 71 70 89
3 27 28 29
3 178 177 9
3 96 95 91
3 135 137 132
3 12 10 174
3 47 48 45
3 3 5 4
3 98 97 91
3 148 150 100
3 36 38 40
3 112 111 107
3 84 85 148
3 55 76 58
3 36 37 38
3 168 21 169
3 168 28 21
3 110 109 107
3 11 15 14
3 159 158 155
3 33 37 32
3 106 105 103
3 7 10 11
3 108 107 103
3 136 130 131
3 145 115 108
3 0 2 3
3 141 124 142
3 130 132 126
3 64 63 57
3 76 55 56
3 156 159 155
3 73 83 84
3 84 148 91
3 5 178 4
3 70 73 84
3 64 65 67
3 99 104 103
3 104 147 108
3 175 10 9
3 68 65 66
3 72 73 70
3 134 130 136
3 51 50 49
3 177 178 180
3 133 139 126
3 64 67 69
3 37 156 39
3 52 48 50
3 115 145 144
3 61 59 57
3 31 29 32
3 151 152 45
3 57 48 55
3 66 72 70
3 127 126 139
3 161 37 162
3 19 18 15
3 38 37 39
3 164 162 33
3 55 48 54
3 35 34 32
3 74 76 77
3 149 99 100
3 118 120 112
3 23 20 21
3 0 3 4
3 148 100 91
3 24 22 25
3 94 93 87
3 57 59 48
3 13 7 11
3 57 55 58
3 88 89 70
3 119 118 116
3 42 45 44
3 158 157 155
3 167 165 166
3 179 180 181
3 120 118 119
3 17 20 22
3 68 71 90
3 10 12 11
3 102 99 103
3 90 71 89
3 179 176 177
3 45 152 46
3 128 126 123
3 66 70 68
3 176 175 9
3 113 111 114
3 23 26 22
3 41 38 42
3 71 68 70
3 94 87 91
3 123 126 125
3 42 38 39
3 72 78 73
3 116 112 115
3 32 29 33
3 48 52 54
3 17 22 24
3 14 16 13
3 129 128 123
3 27 26 23
3 29 30 33
3 0 1 2
3 86 87 92
3 45 46 44
3 101 98 99
3 38 41 40
3 124 129 123
3 82 81 80
3 63 62 57
3 75 79 78
3 116 115 117
3 115 144 117
3 87 86 84
3 163 162 164
3 37 160 156
3 139 133 140
3 28 167 30
3 20 18 21
3 180 5 181
3 37 36 32
3 11 172 19
3 124 141 129
3 150 149 100
3 147 146 108
3 86 88 70
3 78 80 73
3 22 20 23
3 28 30 29
3 39 49 42
3 130 134 132
3 18 17 15
3 123 121 124
3 11 12 172
3 102 101 99
3 100 99 91
3 187 186 188
3 183 185 184
3 191 190 192
3 189 187 188
3 192 190 193
3 190 191 185
3 182 184 186
3 182 183 184
3 187 182 186
3 183 190 185
3 190 194 193

POINT_DATA 195
COLOR_SCALARS GocadColor 4
1 0.498039 0.313726 1
1 0.498039 0.313726 1
1 0.498039 0.313726 1
1 0.498039 0.313726 1
1 0.498039 0.313726 1
1 0.498039 0.313726 1
1 0.498039 0.313726 1
1 0.498039 0.313726 1
1 0.498039 0.313726 1
1 0.498039 0.313726 1
1 0.498039 0.313726 1
1 0.498039 0.313726 1
1 0.498039 0.313726 1
1 0.498039 0.313726 1
1 0.498039 0.313726 1
1 0.498039 0.313726 1
1 0.498039 0.313726 1
1 0.498039 0.313726 1
1 0.498039 0.313726 1
1 0.498039 0.313726 1
1 0.498039 0.313726 1
1 0.498039 0.313726 1
1 0.498039 0.313726 1
1 0.498039 0.313726 1
1 0.498039 0.313726 1
1 0.498039 0.313726 1
1 0.498039 0.313726 1
1 0.498039 0.313726 1
1 0.498039 0.313726 1
1 0.498039 0.313726 1
1 0.498039 0.313726 1
1 0.498039 0.313726 1
1 0.498039 0.313726 1
1 0.498039 0.313726 1
1 0.498039 0.313726 1
1 0.498039 0.313726 1
1 0.498039 0.313726 1
1 0.498039 0.313726 1
1 0.498039 0.313726 1
1 0.498039 0.313726 1
1 0.498039 0.313726 1
1 0.498039 0.313726 1
1 0.498039 0.313726 1
1 0.498039 0.313726 1
1 0.498039 0.313726 1
1 0.498039 0.313726 1
1 0.498039 0.313726 1
1 0.498039 0.313726 1
1 0.498039 0.313726 1
1 0.498039 0.313726 1
1 0.498039 0.313726 1
1 0.498039 0.313726 1
1 0.498039 0.313726 1
1 0.498039 0.313726 1
1 0.498039 0.313726 1
1 0.498039 0.313726 1
1 0.498039 0.313726 1
1 0.498039 0.313726 1
1 0.498039 0.313726 1
1 0.498039 0.313726 1
1 0.498039 0.313726 1
1 0.498039 0.313726 1
1 0.498039 0.313726 1
1 0.498039 0.313726 1
1 0.498039 0.313726 1
1 0.498039 0.313726 1
1 0.498039 0.313726 1
1 0.498039 0.313726 1
1 0.498039 0.313726 1
1 0.498039 0.313726 1
1 0.498039 0.313726 1
1 0.498039 0.313726 1
1 0.498039 0.313726 1
1 0.498039 0.313726 1
1 0.498039 0.313726 1
1 0.498039 0.313726 1
1 0.498039 0.313726 1
1 0.498039 0.313726 1
1 0.498039 0.313726 1
1 0.498039 0.313726 1
1 0.498039 0.313726 1
1 0.498039 0.313726 1
1 0.498039 0.313726 1
1 0.498039 0.313726 1
1 0.498039 0.313726 1
1 0.498039 0.313726 1
1 0.498039 0.313726 1
1 0.498039 0.313726 1
1 0.498039 0.313726 1
1 0.498039 0.313726 1
1 0.498039 0.313726 1
1 0.498039 0.313726 1
1 0.498039 0.313726 1
1 0.498039 0.313726 1
1 0.498039 0.313726 1
1 0.498039 0.313726 1
1 0.498039 0.313726 1
1 0.498039 0.313726 1
1 0.498039 0.313726 1
1 0.498039 0.313726 1
1 0.498039 0.313726 1
1 0.498039 0.313726 1
1 0.498039 0.313726 1
1 0.498039 0.313726 1
1 0.498039 0.313726 1
1 0.498039 0.313726 1
1 0.498039 0.313726 1
1 0.498039 0.313726 1
1 0.498039 0.313726 1
1 0.498039 0.313726 1
1 0.498039 0.313726 1
1 0.498039 0.313726 1
1 0.498039 0.313726 1
1 0.498039 0.313726 1
1 0.498039 0.313726 1
1 0.498039 0.313726 1
1 0.498039 0.313726 1
1 0.498039 0.313726 1
1 0.498039 0.313726 1
1 0.498039 0.313726 1
1 0.498039 0.313726 1
1 0.498039 0.313726 1
1 0.498039 0.313726 1
1 0.498039 0.313726 1
1 0.498039 0.313726 1
1 0.498039 0.313726 1
1 0.498039 0.313726 1
1 0.498039 0.313726 1
1 0.498039 0.313726 1
1 0.498039 0.313726 1
1 0.498039 0.313726 1
1 0.498039 0.313726 1
1 0.498039 0.313726 1
1 0.498039 0.313726 1
1 0.498039 0.313726 1
1 0.498039 0.313726 1
1 0.498039 0.313726 1
1 0.498039 0.313726 1
1 0.498039 0.313726 1
1 0.498039 0.313726 1
1 0.498039 0.313726 1
1 0.498039 0.313726 1
1 0.498039 0.313726 1
1 0.498039 0.313726 1
1 0.498039 0.313726 1
1 0.498039 0.313726 1
1 0.498039 0.313726 1
1 0.498039 0.313726 1
1 0.498039 0.313726 1
1 0.498039 0.313726 1
1 0.498039 0.313726 1
1 0.498039 0.313726 1
1 0.498039 0.313726 1
1 0.498039 0.313726 1
1 0.498039 0.313726 1
1 0.498039 0.313726 1
1 0.498039 0.313726 1
1 0.498039 0.313726 1
1 0.498039 0.313726 1
1 0.498039 0.313726 1
1 0.498039 0.313726 1
1 0.498039 0.313726 1
1 0.498039 0.313726 1
1 0.498039 0.313726 1
1 0.498039 0.313726 1
1 0.498039 0.313726 1
1 0.498039 0.313726 1
1 0.498039 0.313726 1
1 0.498039 0.313726 1
1 0.498039 0.313726 1
1 0.498039 0.313726 1
1 0.498039 0.313726 1
1 0.498039 0.313726 1
1 0.498039 0.313726 1
1 0.498039 0.313726 1
1 0.498039 0.313726 1
1 0.498039 0.313726 1
1 0.498039 0.313726 1
1 0.498039 0.313726 1
1 0.498039 0.313726 1
1 0.498039 0.313726 1
1 0.498039 0.313726 1
1 0.498039 0.313726 1
1 0.498039 0.313726 1
1 0.498039 0.313726 1
1 0.498039 0.313726 1
1 0.498039 0.313726 1
1 0.498039 0.313726 1
1 0.498039 0.313726 1
1 0.498039 0.313726 1
1 0.498039 0.313726 1
1 0.498039 0.313726 1
1 0.498039 0.313726 1
1 0.498039 0.313726 1
1 0.498039 0.313726 1

