# vtk DataFile Version 3.0
Gocad TSurf to VTK
ASCII
DATASET POLYDATA
POINTS 196 float
21569175.000 4556777.500 -25.000
21569100.000 4556610.000 -70.000
21568900.000 4556902.500 -51.250
21568900.000 4556700.000 -110.000
21569150.000 4556990.000 0.000
21569400.000 4556430.000 170.000
21569500.000 4556587.500 193.750
21569325.000 4556297.500 117.500
21569625.000 4556165.000 317.500
21568900.000 4556360.000 -55.000
21569150.000 4556220.000 65.000
21568850.000 4556552.500 -92.500
21568800.000 4556405.000 -75.000
21568750.000 4556257.500 -57.500
21568650.000 4556465.000 -75.000
21568625.000 4556642.500 -92.500
21568400.000 4556585.000 7.500
21568600.000 4556820.000 -110.000
21568525.000 4556680.000 -51.250
21568675.000 4556992.500 -51.250
21568900.000 4557105.000 7.500
21568450.000 4556747.500 -51.250
21568400.000 4557350.000 125.000
21568200.000 4556665.000 70.000
21568375.000 4556400.000 66.250
21568000.000 4556932.500 105.000
21567900.000 4556795.000 195.000
21568125.000 4557267.500 122.500
21567644.125 4557124.672 382.584
21568650.000 4557450.000 148.750
21568175.000 4557662.500 337.500
21568600.000 4557270.000 62.500
21568900.000 4557307.500 66.250
21568750.000 4557165.000 7.500
21569125.000 4557217.500 66.250
21569200.000 4557390.000 125.000
21569325.000 4557112.500 65.000
21568900.000 4557510.000 125.000
21569200.000 4557517.500 136.250
21568975.000 4557607.500 136.250
21569275.000 4557472.500 107.500
21569350.000 4557555.000 90.000
21569425.000 4557390.000 96.250
21569450.000 4557500.000 82.500
21569475.000 4557030.000 87.500
21569700.000 4557237.500 132.500
21569350.000 4556890.000 35.000
21569500.000 4556800.000 155.000
21569250.000 4556945.000 20.000
21569600.000 4556745.000 217.500
21569750.000 4556675.000 327.500
21569775.000 4556867.500 296.250
21570000.000 4556762.500 431.250
21569900.000 4556605.000 417.500
21570100.000 4556920.000 445.000
21569800.000 4557060.000 265.000
21570000.000 4557170.000 280.000
21569850.000 4557155.000 226.250
21570125.000 4557010.000 407.500
21570150.000 4557100.000 370.000
21570175.000 4556977.500 431.250
21570250.000 4557035.000 417.500
21570325.000 4557092.500 403.750
21570175.000 4557190.000 332.500
21570400.000 4557150.000 390.000
21570100.000 4557225.000 287.500
21570200.000 4557280.000 295.000
21570000.000 4557440.000 110.000
21569950.000 4557345.000 148.750
21569800.000 4557305.000 125.000
21569900.000 4557250.000 187.500
21569650.000 4557380.000 90.000
21569675.000 4557485.000 65.000
21569550.000 4557435.000 75.000
21569625.000 4557512.500 57.500
21569700.000 4557590.000 40.000
21569425.000 4557637.500 72.500
21569500.000 4557720.000 55.000
21569200.000 4557772.500 158.750
21569200.000 4557900.000 170.000
21569050.000 4557705.000 147.500
21569125.000 4557802.500 158.750
21568950.000 4557765.000 202.500
21568825.000 4557697.500 218.750
21569075.000 4557832.500 186.250
21568775.000 4558042.500 392.500
21568800.000 4558180.000 445.000
21568650.000 4558100.000 445.000
21568500.000 4558020.000 445.000
21568725.000 4557767.500 287.500
21568484.938 4558011.969 445.000
21568368.766 4557931.367 437.117
21568700.000 4557630.000 235.000
21568363.703 4557927.855 436.774
21568195.484 4557824.340 425.591
21568073.203 4557717.473 416.904
21568239.641 4557841.770 428.354
21567952.406 4557611.910 408.324
21567914.406 4557578.703 405.625
21567774.734 4557456.641 395.703
21567635.641 4557335.078 385.822
21567650.891 4557141.859 383.263
21569725.000 4556482.500 358.750
21569800.000 4556447.500 403.750
21569700.000 4556290.000 390.000
21569700.000 4556130.000 386.250
21569700.000 4555970.000 382.500
21569550.000 4556040.000 245.000
21569400.000 4556110.000 135.000
21569700.000 4555810.000 378.750
21569700.000 4555650.000 375.000
21569425.000 4555757.500 166.250
21569400.000 4555950.000 117.500
21569650.000 4555652.500 372.500
21569600.000 4555655.000 370.000
21569550.000 4555657.500 367.500
21569500.000 4555660.000 365.000
21569200.000 4555730.000 225.000
21569300.000 4555760.000 162.500
21569200.000 4555607.500 273.750
21569425.000 4555555.000 378.750
21569125.000 4555627.500 238.750
21569050.000 4555525.000 252.500
21568975.000 4555680.000 145.000
21569025.000 4555825.000 65.000
21568950.000 4555560.000 190.000
21568850.000 4555595.000 175.000
21568875.000 4555457.500 227.500
21568825.000 4555732.500 122.500
21568700.000 4555635.000 187.500
21568800.000 4555870.000 70.000
21568850.000 4555940.000 15.000
21568750.000 4555752.500 128.750
21568600.000 4555820.000 151.250
21568600.000 4555680.000 202.500
21568600.000 4555960.000 100.000
21568450.000 4555730.000 267.500
21568525.000 4556035.000 106.250
21568725.000 4556050.000 -12.500
21568100.000 4556215.000 237.500
21567900.000 4556170.000 350.000
21567700.000 4556520.000 375.000
21568900.000 4556010.000 -40.000
21568950.000 4556160.000 -47.500
21568950.000 4555905.000 30.000
21569050.000 4555850.000 30.000
21569150.000 4555815.000 92.500
21569175.000 4556032.500 12.500
21569250.000 4556165.000 65.000
21567800.000 4556657.500 285.000
21567850.000 4556257.500 356.250
21567850.000 4556257.500 356.250
21567675.000 4556725.000 382.500
21567674.578 4556728.477 382.627
21567663.172 4556918.465 380.007
21567662.734 4556923.121 380.065
21567662.094 4556930.086 380.152
21568000.000 4556002.500 371.250
21568200.000 4555667.500 413.750
21568200.000 4555667.500 413.750
21568300.000 4555500.000 435.000
21568375.000 4555615.000 351.250
21568600.000 4555400.000 305.000
21568650.000 4555517.500 246.250
21568400.000 4555360.000 437.500
21568625.000 4555285.000 340.000
21568900.000 4555320.000 280.000
21568500.000 4555220.000 440.000
21568650.000 4555170.000 375.000
21568850.000 4555225.000 321.250
21568600.000 4555080.000 442.500
21568675.000 4555055.000 410.000
21568800.000 4555130.000 362.500
21568700.000 4554940.000 445.000
21568750.000 4555035.000 403.750
21568900.000 4554910.000 320.000
21568900.000 4555012.500 310.000
21568975.000 4554992.500 345.000
21568900.000 4555115.000 300.000
21569100.000 4554880.000 280.000
21569125.000 4554970.000 315.000
21569050.000 4555075.000 370.000
21569200.000 4554947.500 356.250
21569150.000 4555060.000 350.000
21569200.000 4554850.000 335.000
21569275.000 4554932.500 420.000
21569250.000 4555035.000 420.000
21569300.000 4554830.000 420.000
21569225.000 4555137.500 420.000
21569200.000 4555240.000 420.000
21569125.000 4555157.500 395.000
21568900.000 4555217.500 290.000
21569200.000 4555362.500 371.250
21568975.000 4555422.500 266.250
21569275.000 4555345.000 406.250
21569350.000 4555450.000 392.500

POLYGONS 328 1312
3 39 80 78
3 183 190 189
3 176 175 174
3 162 166 165
3 128 130 124
3 129 126 163
3 114 115 111
3 178 176 172
3 2 20 4
3 4 34 36
3 82 89 85
3 63 59 65
3 102 6 50
3 84 80 82
3 72 74 75
3 107 111 112
3 23 16 24
3 34 35 36
3 176 174 172
3 188 186 183
3 150 151 141
3 45 71 69
3 55 51 44
3 14 12 13
3 179 175 177
3 128 123 126
3 85 86 79
3 15 3 11
3 122 125 121
3 181 177 178
3 170 168 171
3 14 24 16
3 9 10 143
3 59 58 56
3 187 184 185
3 21 18 16
3 152 26 149
3 30 92 29
3 104 102 103
3 174 173 171
3 166 191 169
3 111 110 113
3 10 147 143
3 8 7 5
3 50 49 51
3 60 54 58
3 184 179 182
3 43 40 41
3 106 107 8
3 55 54 51
3 137 135 139
3 28 25 156
3 121 117 119
3 126 125 127
3 140 135 157
3 36 35 42
3 7 10 9
3 49 47 51
3 118 146 147
3 32 34 20
3 190 191 166
3 190 181 191
3 134 129 163
3 137 138 130
3 162 161 163
3 106 8 105
3 81 80 84
3 83 89 82
3 140 150 139
3 123 128 124
3 121 119 122
3 42 35 40
3 73 43 74
3 63 65 66
3 18 15 16
3 65 68 67
3 177 176 178
3 61 59 62
3 41 38 78
3 19 33 20
3 108 148 7
3 112 148 108
3 149 26 23
3 141 149 24
3 147 10 148
3 14 11 12
3 109 110 107
3 192 166 193
3 72 71 73
3 1 7 9
3 75 74 76
3 111 118 112
3 130 131 124
3 82 39 83
3 36 44 46
3 136 158 157
3 32 35 34
3 110 111 107
3 160 162 164
3 15 14 16
3 162 160 161
3 67 66 65
3 27 28 101
3 131 144 124
3 31 29 32
3 189 192 194
3 89 88 85
3 175 176 177
3 192 195 194
3 21 17 18
3 104 5 102
3 69 57 45
3 47 49 6
3 30 97 95
3 138 142 131
3 25 155 156
3 21 27 22
3 142 138 13
3 133 132 134
3 186 185 182
3 21 23 25
3 180 183 182
3 27 30 29
3 84 85 79
3 85 87 86
3 109 107 106
3 189 188 183
3 23 21 16
3 192 193 119
3 157 135 136
3 78 80 81
3 113 114 111
3 39 37 83
3 15 11 14
3 91 92 93
3 145 142 147
3 179 180 182
3 17 21 19
3 17 3 15
3 8 104 105
3 144 145 124
3 42 71 45
3 23 26 25
3 117 116 119
3 112 147 148
3 132 130 128
3 160 159 158
3 133 134 136
3 166 169 165
3 4 0 2
3 172 174 171
3 51 47 44
3 138 131 130
3 144 131 142
3 191 178 169
3 40 35 38
3 164 162 165
3 8 107 108
3 135 137 130
3 84 82 85
3 5 0 6
3 178 172 169
3 42 43 73
3 135 130 133
3 145 144 142
3 76 78 77
3 60 58 61
3 92 89 83
3 45 44 42
3 119 116 120
3 47 46 44
3 90 89 91
3 115 116 111
3 74 43 76
3 59 63 62
3 27 99 98
3 50 52 53
3 89 92 91
3 5 1 0
3 166 162 127
3 5 104 8
3 40 38 41
3 107 112 108
3 120 195 119
3 43 42 40
3 9 11 1
3 63 66 64
3 48 46 0
3 179 177 180
3 96 92 94
3 72 75 69
3 27 25 28
3 56 70 68
3 78 79 77
3 44 36 42
3 147 142 143
3 2 19 20
3 135 133 136
3 27 101 100
3 13 138 137
3 0 4 48
3 1 5 7
3 31 33 19
3 146 118 117
3 180 177 181
3 81 84 79
3 17 19 2
3 12 9 13
3 175 173 174
3 57 70 56
3 56 68 65
3 102 53 103
3 26 152 153
3 26 154 155
3 128 126 129
3 72 73 74
3 55 57 56
3 22 27 29
3 5 6 102
3 58 59 61
3 69 71 72
3 165 169 168
3 33 31 32
3 6 49 50
3 21 25 27
3 181 178 191
3 126 127 163
3 45 55 44
3 50 53 102
3 166 189 190
3 132 128 129
3 145 146 124
3 168 172 171
3 3 17 2
3 38 37 39
3 195 192 119
3 51 54 52
3 38 39 78
3 30 27 97
3 48 4 36
3 135 140 139
3 77 75 76
3 193 122 119
3 180 181 183
3 54 55 56
3 121 123 117
3 17 15 18
3 37 92 83
3 124 146 117
3 127 162 163
3 90 88 89
3 139 150 141
3 146 145 147
3 48 36 46
3 158 140 157
3 24 13 137
3 151 150 140
3 164 165 167
3 149 23 24
3 143 142 13
3 116 117 111
3 27 98 97
3 31 22 29
3 125 123 121
3 25 26 155
3 37 35 32
3 117 123 124
3 62 63 64
3 132 129 134
3 154 26 153
3 112 118 147
3 78 81 79
3 169 172 168
3 73 71 42
3 167 168 170
3 133 130 132
3 139 141 24
3 20 33 32
3 141 152 149
3 189 166 192
3 0 1 2
3 92 37 29
3 92 30 94
3 12 11 9
3 166 127 193
3 57 55 45
3 20 34 4
3 22 31 19
3 29 37 32
3 35 37 38
3 167 165 168
3 0 46 6
3 65 59 56
3 193 125 122
3 27 100 99
3 160 158 161
3 183 181 190
3 51 52 50
3 9 143 13
3 43 41 76
3 117 118 111
3 137 139 24
3 93 92 96
3 126 123 125
3 173 170 171
3 24 14 13
3 80 39 82
3 88 87 85
3 8 108 7
3 94 30 95
3 70 57 69
3 148 10 7
3 58 54 56
3 161 136 163
3 75 67 69
3 46 47 6
3 185 184 182
3 193 127 125
3 1 3 2
3 136 134 163
3 186 182 183
3 67 68 69
3 158 136 161
3 19 21 22
3 158 159 140
3 76 41 78
3 11 3 1
3 68 70 69

POINT_DATA 196
COLOR_SCALARS GocadColor 4
0.486275 0.596078 0.827451 1
0.486275 0.596078 0.827451 1
0.486275 0.596078 0.827451 1
0.486275 0.596078 0.827451 1
0.486275 0.596078 0.827451 1
0.486275 0.596078 0.827451 1
0.486275 0.596078 0.827451 1
0.486275 0.596078 0.827451 1
0.486275 0.596078 0.827451 1
0.486275 0.596078 0.827451 1
0.486275 0.596078 0.827451 1
0.486275 0.596078 0.827451 1
0.486275 0.596078 0.827451 1
0.486275 0.596078 0.827451 1
0.486275 0.596078 0.827451 1
0.486275 0.596078 0.827451 1
0.486275 0.596078 0.827451 1
0.486275 0.596078 0.827451 1
0.486275 0.596078 0.827451 1
0.486275 0.596078 0.827451 1
0.486275 0.596078 0.827451 1
0.486275 0.596078 0.827451 1
0.486275 0.596078 0.827451 1
0.486275 0.596078 0.827451 1
0.486275 0.596078 0.827451 1
0.486275 0.596078 0.827451 1
0.486275 0.596078 0.827451 1
0.486275 0.596078 0.827451 1
0.486275 0.596078 0.827451 1
0.486275 0.596078 0.827451 1
0.486275 0.596078 0.827451 1
0.486275 0.596078 0.827451 1
0.486275 0.596078 0.827451 1
0.486275 0.596078 0.827451 1
0.486275 0.596078 0.827451 1
0.486275 0.596078 0.827451 1
0.486275 0.596078 0.827451 1
0.486275 0.596078 0.827451 1
0.486275 0.596078 0.827451 1
0.486275 0.596078 0.827451 1
0.486275 0.596078 0.827451 1
0.486275 0.596078 0.827451 1
0.486275 0.596078 0.827451 1
0.486275 0.596078 0.827451 1
0.486275 0.596078 0.827451 1
0.486275 0.596078 0.827451 1
0.486275 0.596078 0.827451 1
0.486275 0.596078 0.827451 1
0.486275 0.596078 0.827451 1
0.486275 0.596078 0.827451 1
0.486275 0.596078 0.827451 1
0.486275 0.596078 0.827451 1
0.486275 0.596078 0.827451 1
0.486275 0.596078 0.827451 1
0.486275 0.596078 0.827451 1
0.486275 0.596078 0.827451 1
0.486275 0.596078 0.827451 1
0.486275 0.596078 0.827451 1
0.486275 0.596078 0.827451 1
0.486275 0.596078 0.827451 1
0.486275 0.596078 0.827451 1
0.486275 0.596078 0.827451 1
0.486275 0.596078 0.827451 1
0.486275 0.596078 0.827451 1
0.486275 0.596078 0.827451 1
0.486275 0.596078 0.827451 1
0.486275 0.596078 0.827451 1
0.486275 0.596078 0.827451 1
0.486275 0.596078 0.827451 1
0.486275 0.596078 0.827451 1
0.486275 0.596078 0.827451 1
0.486275 0.596078 0.827451 1
0.486275 0.596078 0.827451 1
0.486275 0.596078 0.827451 1
0.486275 0.596078 0.827451 1
0.486275 0.596078 0.827451 1
0.486275 0.596078 0.827451 1
0.486275 0.596078 0.827451 1
0.486275 0.596078 0.827451 1
0.486275 0.596078 0.827451 1
0.486275 0.596078 0.827451 1
0.486275 0.596078 0.827451 1
0.486275 0.596078 0.827451 1
0.486275 0.596078 0.827451 1
0.486275 0.596078 0.827451 1
0.486275 0.596078 0.827451 1
0.486275 0.596078 0.827451 1
0.486275 0.596078 0.827451 1
0.486275 0.596078 0.827451 1
0.486275 0.596078 0.827451 1
0.486275 0.596078 0.827451 1
0.486275 0.596078 0.827451 1
0.486275 0.596078 0.827451 1
0.486275 0.596078 0.827451 1
0.486275 0.596078 0.827451 1
0.486275 0.596078 0.827451 1
0.486275 0.596078 0.827451 1
0.486275 0.596078 0.827451 1
0.486275 0.596078 0.827451 1
0.486275 0.596078 0.827451 1
0.486275 0.596078 0.827451 1
0.486275 0.596078 0.827451 1
0.486275 0.596078 0.827451 1
0.486275 0.596078 0.827451 1
0.486275 0.596078 0.827451 1
0.486275 0.596078 0.827451 1
0.486275 0.596078 0.827451 1
0.486275 0.596078 0.827451 1
0.486275 0.596078 0.827451 1
0.486275 0.596078 0.827451 1
0.486275 0.596078 0.827451 1
0.486275 0.596078 0.827451 1
0.486275 0.596078 0.827451 1
0.486275 0.596078 0.827451 1
0.486275 0.596078 0.827451 1
0.486275 0.596078 0.827451 1
0.486275 0.596078 0.827451 1
0.486275 0.596078 0.827451 1
0.486275 0.596078 0.827451 1
0.486275 0.596078 0.827451 1
0.486275 0.596078 0.827451 1
0.486275 0.596078 0.827451 1
0.486275 0.596078 0.827451 1
0.486275 0.596078 0.827451 1
0.486275 0.596078 0.827451 1
0.486275 0.596078 0.827451 1
0.486275 0.596078 0.827451 1
0.486275 0.596078 0.827451 1
0.486275 0.596078 0.827451 1
0.486275 0.596078 0.827451 1
0.486275 0.596078 0.827451 1
0.486275 0.596078 0.827451 1
0.486275 0.596078 0.827451 1
0.486275 0.596078 0.827451 1
0.486275 0.596078 0.827451 1
0.486275 0.596078 0.827451 1
0.486275 0.596078 0.827451 1
0.486275 0.596078 0.827451 1
0.486275 0.596078 0.827451 1
0.486275 0.596078 0.827451 1
0.486275 0.596078 0.827451 1
0.486275 0.596078 0.827451 1
0.486275 0.596078 0.827451 1
0.486275 0.596078 0.827451 1
0.486275 0.596078 0.827451 1
0.486275 0.596078 0.827451 1
0.486275 0.596078 0.827451 1
0.486275 0.596078 0.827451 1
0.486275 0.596078 0.827451 1
0.486275 0.596078 0.827451 1
0.486275 0.596078 0.827451 1
0.486275 0.596078 0.827451 1
0.486275 0.596078 0.827451 1
0.486275 0.596078 0.827451 1
0.486275 0.596078 0.827451 1
0.486275 0.596078 0.827451 1
0.486275 0.596078 0.827451 1
0.486275 0.596078 0.827451 1
0.486275 0.596078 0.827451 1
0.486275 0.596078 0.827451 1
0.486275 0.596078 0.827451 1
0.486275 0.596078 0.827451 1
0.486275 0.596078 0.827451 1
0.486275 0.596078 0.827451 1
0.486275 0.596078 0.827451 1
0.486275 0.596078 0.827451 1
0.486275 0.596078 0.827451 1
0.486275 0.596078 0.827451 1
0.486275 0.596078 0.827451 1
0.486275 0.596078 0.827451 1
0.486275 0.596078 0.827451 1
0.486275 0.596078 0.827451 1
0.486275 0.596078 0.827451 1
0.486275 0.596078 0.827451 1
0.486275 0.596078 0.827451 1
0.486275 0.596078 0.827451 1
0.486275 0.596078 0.827451 1
0.486275 0.596078 0.827451 1
0.486275 0.596078 0.827451 1
0.486275 0.596078 0.827451 1
0.486275 0.596078 0.827451 1
0.486275 0.596078 0.827451 1
0.486275 0.596078 0.827451 1
0.486275 0.596078 0.827451 1
0.486275 0.596078 0.827451 1
0.486275 0.596078 0.827451 1
0.486275 0.596078 0.827451 1
0.486275 0.596078 0.827451 1
0.486275 0.596078 0.827451 1
0.486275 0.596078 0.827451 1
0.486275 0.596078 0.827451 1
0.486275 0.596078 0.827451 1
0.486275 0.596078 0.827451 1
0.486275 0.596078 0.827451 1
0.486275 0.596078 0.827451 1
0.486275 0.596078 0.827451 1

