# vtk DataFile Version 3.0
Gocad TSurf to VTK
ASCII
DATASET POLYDATA
POINTS 102 float
21607450.000 4569000.000 -432.500
21607525.000 4568655.000 -466.250
21607825.000 4569000.000 -353.750
21608200.000 4568707.500 -272.500
21607650.000 4569230.000 -357.500
21607850.000 4569440.000 -280.000
21607375.000 4569345.000 -398.750
21607475.000 4569460.000 -361.250
21607300.000 4569690.000 -365.000
21607800.000 4570060.000 -195.000
21607950.000 4569842.500 -195.000
21608100.000 4569625.000 -195.000
21608250.000 4569407.500 -195.000
21608125.000 4569315.000 -237.500
21608400.000 4569190.000 -195.000
21608500.000 4569015.000 -156.250
21608400.000 4568645.000 -195.000
21608025.000 4568455.000 -377.500
21608600.000 4568855.000 -117.500
21608700.000 4568687.500 -78.750
21608800.000 4568520.000 -40.000
21608700.000 4568685.000 -78.750
21607850.000 4567910.000 -480.000
21608150.000 4567305.000 -512.500
21607525.000 4567162.500 -646.250
21608425.000 4567147.500 -512.500
21608250.000 4566895.000 -617.500
21609250.000 4568830.000 75.000
21609700.000 4569140.000 190.000
21610150.000 4569450.000 305.000
21608300.000 4566690.000 -670.000
21610600.000 4569760.000 420.000
21607900.000 4566735.000 -682.500
21607650.000 4566045.000 -905.000
21607600.000 4566290.000 -835.000
21607700.000 4565800.000 -975.000
21608075.000 4565677.500 -940.000
21607775.000 4565685.000 -988.750
21608900.000 4566620.000 -570.000
21608000.000 4565340.000 -1030.000
21609325.000 4567405.000 -322.500
21611000.000 4569370.000 320.000
21610175.000 4568975.000 172.500
21610800.000 4569565.000 370.000
21610700.000 4569662.500 395.000
21610900.000 4569467.500 345.000
21610800.000 4568810.000 170.000
21609550.000 4566875.000 -425.000
21611150.000 4569280.000 333.750
21611300.000 4569190.000 347.500
21610400.000 4567690.000 -130.000
21611450.000 4569100.000 361.250
21611600.000 4569010.000 375.000
21610625.000 4567335.000 -297.500
21609875.000 4567002.500 -352.500
21611675.000 4568745.000 193.750
21611050.000 4567540.000 -315.000
21611700.000 4568880.000 277.500
21611900.000 4568620.000 82.500
21611725.000 4569045.000 375.000
21611731.766 4569046.895 375.000
21611725.000 4569042.500 375.000
21611731.789 4569046.629 375.000
21611731.969 4569044.313 375.000
21611841.695 4569068.922 369.600
21611851.000 4569070.789 369.142
21611971.984 4569087.875 363.226
21612088.031 4569118.285 357.497
21612000.000 4568490.000 -15.000
21611825.000 4568215.000 -168.750
21612095.422 4569119.766 357.135
21611900.000 4567950.000 -350.000
21611475.000 4567745.000 -332.500
21611400.000 4567642.500 -367.500
21610900.000 4567335.000 -385.000
21610400.000 4567027.500 -402.500
21609900.000 4566720.000 -420.000
21609650.000 4566695.000 -457.500
21609425.000 4566375.000 -572.500
21609150.000 4566645.000 -532.500
21608950.000 4566030.000 -725.000
21608475.000 4565685.000 -877.500
21607925.000 4565455.000 -1016.250
21607850.000 4565570.000 -1002.500
21607550.000 4566535.000 -765.000
21607500.000 4566780.000 -695.000
21607550.000 4567545.000 -597.500
21607575.000 4567927.500 -548.750
21607600.000 4568310.000 -500.000
21612100.000 4569150.000 375.000
21611975.000 4569107.500 375.000
21611971.984 4569087.875 363.226
21611851.000 4569070.789 369.142
21612088.031 4569118.285 357.497
21612100.000 4569140.000 375.000
21612095.422 4569119.766 357.135
21611850.000 4569080.000 375.000
21611841.695 4569068.922 369.600
21611850.000 4569075.000 375.000
21611731.789 4569046.629 375.000
21611731.969 4569044.313 375.000
21611731.766 4569046.895 375.000

POLYGONS 132 528
3 54 76 53
3 34 33 32
3 13 2 3
3 86 24 22
3 56 74 73
3 38 79 47
3 57 52 55
3 80 78 79
3 19 21 18
3 5 10 7
3 11 5 12
3 32 26 23
3 62 63 61
3 67 66 58
3 14 13 3
3 33 35 30
3 62 61 59
3 44 42 43
3 67 68 70
3 50 47 54
3 71 72 73
3 17 16 3
3 36 39 38
3 64 57 58
3 86 22 87
3 61 52 59
3 50 46 47
3 36 82 39
3 6 4 7
3 44 31 42
3 26 25 23
3 53 75 74
3 56 53 74
3 60 59 57
3 10 9 7
3 20 23 25
3 25 30 29
3 69 58 55
3 85 84 32
3 78 77 79
3 48 46 49
3 35 37 36
3 88 87 22
3 2 1 3
3 19 18 16
3 47 77 54
3 19 20 21
3 23 20 22
3 46 38 47
3 67 58 68
3 6 0 4
3 54 77 76
3 40 38 41
3 52 50 53
3 26 30 25
3 60 62 59
3 64 60 57
3 48 41 46
3 33 30 32
3 37 83 36
3 15 16 18
3 17 88 22
3 20 19 16
3 25 29 28
3 36 83 82
3 42 31 30
3 3 15 14
3 43 42 40
3 30 31 29
3 46 41 38
3 14 12 13
3 55 52 53
3 23 85 32
3 59 52 57
3 56 72 55
3 4 5 7
3 72 69 55
3 65 64 58
3 72 56 73
3 76 75 53
3 77 78 76
3 1 88 3
3 42 30 40
3 24 85 23
3 20 16 22
3 79 38 81
3 24 23 22
3 68 58 69
3 34 32 84
3 45 43 40
3 30 38 40
3 45 40 41
3 15 3 16
3 16 17 22
3 51 49 50
3 10 5 11
3 81 38 39
3 71 69 72
3 51 50 52
3 12 5 13
3 57 55 58
3 77 47 79
3 5 2 13
3 49 46 50
3 80 79 81
3 66 65 58
3 4 2 5
3 0 1 2
3 0 2 4
3 30 35 36
3 9 8 7
3 88 17 3
3 28 27 25
3 30 26 32
3 55 53 56
3 27 20 25
3 50 54 53
3 71 68 69
3 6 7 8
3 30 36 38
3 90 96 92
3 90 92 91
3 96 97 92
3 90 98 96
3 99 98 100
3 89 94 90
3 93 89 91
3 89 90 91
3 101 96 99
3 95 89 93
3 96 98 99
3 96 101 97

POINT_DATA 102
COLOR_SCALARS GocadColor 4
0.129458 0.541176 0.129458 1
0.129458 0.541176 0.129458 1
0.129458 0.541176 0.129458 1
0.129458 0.541176 0.129458 1
0.129458 0.541176 0.129458 1
0.129458 0.541176 0.129458 1
0.129458 0.541176 0.129458 1
0.129458 0.541176 0.129458 1
0.129458 0.541176 0.129458 1
0.129458 0.541176 0.129458 1
0.129458 0.541176 0.129458 1
0.129458 0.541176 0.129458 1
0.129458 0.541176 0.129458 1
0.129458 0.541176 0.129458 1
0.129458 0.541176 0.129458 1
0.129458 0.541176 0.129458 1
0.129458 0.541176 0.129458 1
0.129458 0.541176 0.129458 1
0.129458 0.541176 0.129458 1
0.129458 0.541176 0.129458 1
0.129458 0.541176 0.129458 1
0.129458 0.541176 0.129458 1
0.129458 0.541176 0.129458 1
0.129458 0.541176 0.129458 1
0.129458 0.541176 0.129458 1
0.129458 0.541176 0.129458 1
0.129458 0.541176 0.129458 1
0.129458 0.541176 0.129458 1
0.129458 0.541176 0.129458 1
0.129458 0.541176 0.129458 1
0.129458 0.541176 0.129458 1
0.129458 0.541176 0.129458 1
0.129458 0.541176 0.129458 1
0.129458 0.541176 0.129458 1
0.129458 0.541176 0.129458 1
0.129458 0.541176 0.129458 1
0.129458 0.541176 0.129458 1
0.129458 0.541176 0.129458 1
0.129458 0.541176 0.129458 1
0.129458 0.541176 0.129458 1
0.129458 0.541176 0.129458 1
0.129458 0.541176 0.129458 1
0.129458 0.541176 0.129458 1
0.129458 0.541176 0.129458 1
0.129458 0.541176 0.129458 1
0.129458 0.541176 0.129458 1
0.129458 0.541176 0.129458 1
0.129458 0.541176 0.129458 1
0.129458 0.541176 0.129458 1
0.129458 0.541176 0.129458 1
0.129458 0.541176 0.129458 1
0.129458 0.541176 0.129458 1
0.129458 0.541176 0.129458 1
0.129458 0.541176 0.129458 1
0.129458 0.541176 0.129458 1
0.129458 0.541176 0.129458 1
0.129458 0.541176 0.129458 1
0.129458 0.541176 0.129458 1
0.129458 0.541176 0.129458 1
0.129458 0.541176 0.129458 1
0.129458 0.541176 0.129458 1
0.129458 0.541176 0.129458 1
0.129458 0.541176 0.129458 1
0.129458 0.541176 0.129458 1
0.129458 0.541176 0.129458 1
0.129458 0.541176 0.129458 1
0.129458 0.541176 0.129458 1
0.129458 0.541176 0.129458 1
0.129458 0.541176 0.129458 1
0.129458 0.541176 0.129458 1
0.129458 0.541176 0.129458 1
0.129458 0.541176 0.129458 1
0.129458 0.541176 0.129458 1
0.129458 0.541176 0.129458 1
0.129458 0.541176 0.129458 1
0.129458 0.541176 0.129458 1
0.129458 0.541176 0.129458 1
0.129458 0.541176 0.129458 1
0.129458 0.541176 0.129458 1
0.129458 0.541176 0.129458 1
0.129458 0.541176 0.129458 1
0.129458 0.541176 0.129458 1
0.129458 0.541176 0.129458 1
0.129458 0.541176 0.129458 1
0.129458 0.541176 0.129458 1
0.129458 0.541176 0.129458 1
0.129458 0.541176 0.129458 1
0.129458 0.541176 0.129458 1
0.129458 0.541176 0.129458 1
0.129458 0.541176 0.129458 1
0.129458 0.541176 0.129458 1
0.129458 0.541176 0.129458 1
0.129458 0.541176 0.129458 1
0.129458 0.541176 0.129458 1
0.129458 0.541176 0.129458 1
0.129458 0.541176 0.129458 1
0.129458 0.541176 0.129458 1
0.129458 0.541176 0.129458 1
0.129458 0.541176 0.129458 1
0.129458 0.541176 0.129458 1
0.129458 0.541176 0.129458 1
0.129458 0.541176 0.129458 1

