# vtk DataFile Version 3.0
Gocad TSurf to VTK
ASCII
DATASET POLYDATA
POINTS 90 float
21608900.000 4568590.000 -2790.000
21608075.000 4568585.000 -3011.250
21608775.000 4568752.500 -2807.500
21608650.000 4568915.000 -2825.000
21607900.000 4568000.000 -3217.500
21608000.000 4567420.000 -3350.000
21607850.000 4568290.000 -3151.250
21607675.000 4568865.000 -3085.000
21607700.000 4568072.500 -3222.500
21607600.000 4568290.000 -3180.000
21607575.000 4567902.500 -3291.250
21607550.000 4567515.000 -3402.500
21607525.000 4567127.500 -3513.750
21607900.000 4566997.500 -3558.750
21609200.000 4568200.000 -3211.250
21607500.000 4566740.000 -3625.000
21607525.000 4566487.500 -3765.000
21607550.000 4566235.000 -3905.000
21607700.000 4566152.500 -3976.250
21607575.000 4565982.500 -4045.000
21607600.000 4565730.000 -4185.000
21609600.000 4568460.000 -3165.000
21608150.000 4566237.500 -3923.750
21609250.000 4568530.000 -2977.500
21610925.000 4570562.500 -2246.250
21610250.000 4569905.000 -2427.500
21611600.000 4571210.000 -2065.000
21610175.000 4568990.000 -2893.750
21611675.000 4571052.500 -2068.750
21609650.000 4568285.000 -3158.750
21609750.000 4567935.000 -3146.250
21609250.000 4567252.500 -3401.250
21607825.000 4565415.000 -4027.500
21609800.000 4567760.000 -3140.000
21611325.000 4570050.000 -2351.250
21607900.000 4565310.000 -3975.000
21608400.000 4565657.500 -3821.250
21609825.000 4567495.000 -3195.000
21610050.000 4567815.000 -3083.750
21608900.000 4566005.000 -3667.500
21609400.000 4566352.500 -3513.750
21609875.000 4566965.000 -3305.000
21610550.000 4567925.000 -2971.250
21609900.000 4566700.000 -3360.000
21610800.000 4567980.000 -2915.000
21610400.000 4567002.500 -3420.000
21611350.000 4567945.000 -3257.500
21611100.000 4568095.000 -2995.000
21610900.000 4567305.000 -3480.000
21611400.000 4567607.500 -3540.000
21611625.000 4567927.500 -3428.750
21611900.000 4567910.000 -3600.000
21611700.000 4568325.000 -3155.000
21612000.000 4568440.000 -3235.000
21612025.000 4568755.000 -2995.000
21612200.000 4569580.000 -2425.000
21612175.000 4569610.000 -2387.500
21612050.000 4569070.000 -2755.000
21612150.000 4569640.000 -2350.000
21612125.000 4569670.000 -2312.500
21612100.000 4569700.000 -2275.000
21611075.000 4568630.000 -2706.250
21612050.000 4569920.000 -2226.250
21611625.000 4569930.000 -2288.750
21611950.000 4570360.000 -2128.750
21611900.000 4570580.000 -2080.000
21611825.000 4570737.500 -2076.250
21611750.000 4570895.000 -2072.500
21611825.000 4570737.500 -2076.250
21607750.000 4565520.000 -4080.000
21607675.000 4565625.000 -4132.500
21609575.000 4569247.500 -2608.750
21609575.000 4569245.000 -2608.750
21607525.000 4568647.500 -3156.250
21607450.000 4569005.000 -3132.500
21607425.000 4569435.000 -3085.000
21607375.000 4569362.500 -3108.750
21608225.000 4569425.000 -2891.250
21607850.000 4569480.000 -2972.500
21608400.000 4569240.000 -2860.000
21608275.000 4569472.500 -2873.750
21608525.000 4569077.500 -2842.500
21608150.000 4569705.000 -2887.500
21608050.000 4569610.000 -2922.500
21607875.000 4569795.000 -2953.750
21608025.000 4569937.500 -2901.250
21607700.000 4569980.000 -2985.000
21607575.000 4569600.000 -3028.750
21607900.000 4570170.000 -2915.000
21607300.000 4569720.000 -3085.000

POLYGONS 128 512
3 61 42 38
3 4 1 0
3 81 3 1
3 53 51 52
3 34 30 27
3 59 58 57
3 60 44 61
3 47 44 57
3 63 62 61
3 78 75 87
3 87 75 89
3 45 44 46
3 35 32 31
3 67 34 28
3 75 78 77
3 43 40 41
3 18 17 13
3 34 67 66
3 77 7 75
3 51 50 52
3 14 5 0
3 53 52 54
3 60 59 57
3 14 18 13
3 0 1 2
3 13 15 12
3 86 88 85
3 52 50 47
3 63 65 64
3 21 14 23
3 10 9 8
3 83 82 77
3 44 60 57
3 74 76 75
3 14 0 23
3 5 11 4
3 89 86 87
3 18 14 21
3 62 63 64
3 27 26 28
3 21 24 26
3 68 66 67
3 82 83 84
3 4 8 6
3 51 49 50
3 22 21 29
3 85 84 86
3 8 9 6
3 55 54 56
3 78 83 77
3 69 70 22
3 49 46 50
3 30 31 29
3 27 30 29
3 7 74 75
3 79 77 80
3 5 12 11
3 36 33 37
3 33 35 31
3 31 32 22
3 20 21 22
3 32 69 22
3 44 47 46
3 35 33 36
3 11 10 4
3 6 9 7
3 57 54 47
3 56 57 58
3 37 33 38
3 1 79 81
3 44 42 61
3 18 21 20
3 79 7 77
3 40 39 37
3 71 72 25
3 13 12 5
3 5 4 0
3 74 7 73
3 42 37 38
3 33 65 63
3 56 54 57
3 65 33 34
3 10 8 4
3 25 24 23
3 13 5 14
3 27 21 26
3 55 53 54
3 79 1 7
3 65 34 66
3 62 64 60
3 9 73 7
3 23 0 71
3 19 17 18
3 1 6 7
3 44 41 42
3 48 46 49
3 42 41 37
3 41 40 37
3 29 21 27
3 29 31 22
3 38 33 63
3 82 80 77
3 44 43 41
3 16 15 13
3 24 21 23
3 71 0 72
3 75 76 89
3 4 6 1
3 34 27 28
3 19 18 20
3 1 3 2
3 87 84 78
3 17 16 13
3 70 20 22
3 85 82 84
3 71 25 23
3 33 30 34
3 36 37 39
3 33 31 30
3 43 44 45
3 38 63 61
3 50 46 47
3 60 61 62
3 87 86 84
3 54 52 47
3 48 45 46
3 78 84 83
3 65 66 68

POINT_DATA 90
COLOR_SCALARS GocadColor 4
1 0.498039 0.313726 1
1 0.498039 0.313726 1
1 0.498039 0.313726 1
1 0.498039 0.313726 1
1 0.498039 0.313726 1
1 0.498039 0.313726 1
1 0.498039 0.313726 1
1 0.498039 0.313726 1
1 0.498039 0.313726 1
1 0.498039 0.313726 1
1 0.498039 0.313726 1
1 0.498039 0.313726 1
1 0.498039 0.313726 1
1 0.498039 0.313726 1
1 0.498039 0.313726 1
1 0.498039 0.313726 1
1 0.498039 0.313726 1
1 0.498039 0.313726 1
1 0.498039 0.313726 1
1 0.498039 0.313726 1
1 0.498039 0.313726 1
1 0.498039 0.313726 1
1 0.498039 0.313726 1
1 0.498039 0.313726 1
1 0.498039 0.313726 1
1 0.498039 0.313726 1
1 0.498039 0.313726 1
1 0.498039 0.313726 1
1 0.498039 0.313726 1
1 0.498039 0.313726 1
1 0.498039 0.313726 1
1 0.498039 0.313726 1
1 0.498039 0.313726 1
1 0.498039 0.313726 1
1 0.498039 0.313726 1
1 0.498039 0.313726 1
1 0.498039 0.313726 1
1 0.498039 0.313726 1
1 0.498039 0.313726 1
1 0.498039 0.313726 1
1 0.498039 0.313726 1
1 0.498039 0.313726 1
1 0.498039 0.313726 1
1 0.498039 0.313726 1
1 0.498039 0.313726 1
1 0.498039 0.313726 1
1 0.498039 0.313726 1
1 0.498039 0.313726 1
1 0.498039 0.313726 1
1 0.498039 0.313726 1
1 0.498039 0.313726 1
1 0.498039 0.313726 1
1 0.498039 0.313726 1
1 0.498039 0.313726 1
1 0.498039 0.313726 1
1 0.498039 0.313726 1
1 0.498039 0.313726 1
1 0.498039 0.313726 1
1 0.498039 0.313726 1
1 0.498039 0.313726 1
1 0.498039 0.313726 1
1 0.498039 0.313726 1
1 0.498039 0.313726 1
1 0.498039 0.313726 1
1 0.498039 0.313726 1
1 0.498039 0.313726 1
1 0.498039 0.313726 1
1 0.498039 0.313726 1
1 0.498039 0.313726 1
1 0.498039 0.313726 1
1 0.498039 0.313726 1
1 0.498039 0.313726 1
1 0.498039 0.313726 1
1 0.498039 0.313726 1
1 0.498039 0.313726 1
1 0.498039 0.313726 1
1 0.498039 0.313726 1
1 0.498039 0.313726 1
1 0.498039 0.313726 1
1 0.498039 0.313726 1
1 0.498039 0.313726 1
1 0.498039 0.313726 1
1 0.498039 0.313726 1
1 0.498039 0.313726 1
1 0.498039 0.313726 1
1 0.498039 0.313726 1
1 0.498039 0.313726 1
1 0.498039 0.313726 1
1 0.498039 0.313726 1
1 0.498039 0.313726 1

