# vtk DataFile Version 3.0
Gocad TSurf to VTK
ASCII
DATASET POLYDATA
POINTS 700 float
21621400.000 4577015.000 -172.500
21621450.000 4577050.000 -137.500
21621400.000 4577132.500 -106.250
21621425.000 4577150.000 -88.750
21621475.000 4576950.000 -186.250
21621750.000 4577190.000 0.000
21621400.000 4576897.500 -238.750
21621500.000 4576850.000 -235.000
21621925.000 4577160.000 20.000
21621400.000 4576780.000 -305.000
21621500.000 4576690.000 -291.250
21621425.000 4576637.500 -343.750
21621650.000 4576755.000 -215.000
21622100.000 4577130.000 40.000
21621500.000 4576370.000 -403.750
21621500.000 4576210.000 -460.000
21622100.000 4576470.000 -155.000
21621475.000 4576352.500 -421.250
21621450.000 4576495.000 -382.500
21622100.000 4576800.000 -57.500
21621725.000 4576177.500 -380.000
21621525.000 4576080.000 -512.500
21621950.000 4576145.000 -300.000
21622325.000 4576177.500 -143.750
21621550.000 4575950.000 -565.000
21621575.000 4575820.000 -617.500
21621600.000 4575690.000 -670.000
21622325.000 4575890.000 -192.500
21622600.000 4575855.000 -42.500
21621850.000 4575505.000 -510.000
21621625.000 4575547.500 -656.250
21622175.000 4575510.000 -297.500
21622100.000 4575320.000 -350.000
21622800.000 4575630.000 55.000
21622825.000 4575790.000 76.250
21622800.000 4575417.500 -21.250
21622450.000 4575050.000 -300.000
21623025.000 4575517.500 42.500
21623075.000 4575112.500 -42.500
21623000.000 4575720.000 85.000
21623125.000 4575560.000 71.250
21622975.000 4575857.500 98.750
21623200.000 4575810.000 100.000
21622850.000 4575950.000 97.500
21622950.000 4575995.000 112.500
21622975.000 4576155.000 130.000
21623050.000 4576040.000 120.000
21623100.000 4576232.500 122.500
21623150.000 4575942.500 110.000
21623200.000 4576125.000 105.000
21623300.000 4576017.500 87.500
21623300.000 4576180.000 90.000
21623400.000 4575910.000 70.000
21623425.000 4575702.500 60.000
21623275.000 4575627.500 82.500
21623650.000 4575777.500 48.750
21623550.000 4575312.500 36.250
21623704.000 4575803.297 68.850
21623704.000 4575775.141 70.519
21623704.000 4575894.000 110.000
21623704.000 4576059.422 94.025
21623625.000 4576140.000 76.250
21623704.000 4576151.641 121.779
21623550.000 4576270.000 97.500
21623400.000 4576375.000 122.500
21623704.000 4576275.883 151.300
21623704.000 4576178.016 129.575
21623704.000 4576335.453 172.575
21623475.000 4576400.000 118.750
21623704.000 4576362.523 182.245
21623200.000 4576450.000 110.000
21623275.000 4576615.000 115.000
21623250.000 4576315.000 100.000
21623000.000 4576340.000 140.000
21622850.000 4576400.000 122.500
21622950.000 4576605.000 90.000
21623125.000 4576555.000 92.500
21622600.000 4576577.500 76.250
21622750.000 4576660.000 87.500
21622425.000 4576230.000 -91.250
21622400.000 4576792.500 51.250
21622300.000 4576905.000 47.500
21622400.000 4576945.000 77.500
21622100.000 4576965.000 -8.750
21622200.000 4577017.500 43.750
21622300.000 4577210.000 100.000
21622100.000 4577235.000 72.500
21622350.000 4577077.500 88.750
21622475.000 4577150.000 100.000
21622500.000 4577005.000 90.000
21622550.000 4576872.500 80.000
21622650.000 4577085.000 77.500
21622675.000 4576937.500 73.750
21622675.000 4577252.500 73.750
21622750.000 4577125.000 62.500
21622400.000 4577270.000 110.000
21622600.000 4577380.000 85.000
21622250.000 4577295.000 117.500
21622300.000 4577445.000 140.000
21622100.000 4577340.000 105.000
21622200.000 4577380.000 135.000
21622025.000 4577207.500 61.250
21621950.000 4577285.000 82.500
21622100.000 4577550.000 170.000
21621800.000 4577440.000 125.000
21621575.000 4577220.000 -20.000
21622175.000 4577765.000 172.500
21622300.000 4577560.000 148.750
21621750.000 4577735.000 160.000
21621975.000 4577995.000 188.750
21621550.000 4577650.000 82.500
21621700.000 4578030.000 195.000
21621400.000 4577250.000 -40.000
21621375.000 4577402.500 -20.000
21621350.000 4577555.000 0.000
21621350.000 4577382.500 -37.500
21621300.000 4577515.000 -35.000
21621250.000 4577647.500 -32.500
21621325.000 4577707.500 20.000
21621200.000 4577780.000 -30.000
21621300.000 4577860.000 40.000
21621200.000 4577962.500 -46.250
21621200.000 4578145.000 -62.500
21621250.000 4578185.000 -27.500
21621600.000 4578167.500 146.250
21621200.000 4578327.500 -78.750
21621225.000 4578347.500 -61.250
21621300.000 4578400.000 10.000
21621200.000 4578510.000 -95.000
21621300.000 4578580.000 0.000
21621400.000 4578442.500 48.750
21621150.000 4578642.500 -88.750
21621225.000 4578695.000 -17.500
21621500.000 4578670.000 85.000
21621100.000 4578775.000 -82.500
21621150.000 4578810.000 -35.000
21621250.000 4578855.000 15.000
21621050.000 4578907.500 -76.250
21621075.000 4578925.000 -52.500
21621000.000 4579040.000 -70.000
21621225.000 4578992.500 22.500
21621200.000 4579130.000 30.000
21621400.000 4579210.000 85.000
21621100.000 4579257.500 1.250
21621175.000 4579300.000 40.000
21620950.000 4579190.000 -73.750
21621000.000 4579385.000 -27.500
21620900.000 4579340.000 -77.500
21620900.000 4579512.500 -56.250
21621150.000 4579470.000 50.000
21620850.000 4579490.000 -81.250
21620800.000 4579640.000 -85.000
21621175.000 4579660.000 73.750
21621100.000 4579810.000 70.000
21621300.000 4579880.000 140.000
21620800.000 4579842.500 -28.750
21621050.000 4579982.500 91.250
21620700.000 4579805.000 -73.750
21620600.000 4579970.000 -62.500
21620950.000 4580130.000 105.000
21620500.000 4580135.000 -51.250
21620900.000 4580500.000 155.000
21621000.000 4580345.000 151.250
21620400.000 4580300.000 -40.000
21620800.000 4580905.000 127.500
21620950.000 4580747.500 148.750
21620325.000 4580485.000 -22.500
21620175.000 4580855.000 12.500
21620275.000 4580470.000 -51.250
21620150.000 4580640.000 -62.500
21620025.000 4580810.000 -73.750
21620100.000 4581040.000 30.000
21620300.000 4581130.000 110.000
21619900.000 4580980.000 -85.000
21619950.000 4581217.500 32.500
21620075.000 4581270.000 65.000
21619800.000 4581172.500 -53.750
21619800.000 4581395.000 35.000
21619700.000 4581365.000 -22.500
21619650.000 4581572.500 37.500
21620050.000 4581500.000 100.000
21619600.000 4581557.500 8.750
21619500.000 4581750.000 40.000
21620100.000 4582010.000 170.000
21619500.000 4582017.500 51.250
21619925.000 4582197.500 131.250
21619325.000 4581937.500 2.500
21619350.000 4582215.000 47.500
21619500.000 4582285.000 62.500
21619150.000 4582125.000 -35.000
21619275.000 4582447.500 51.250
21618975.000 4582312.500 -72.500
21619500.000 4582552.500 73.750
21619850.000 4582435.000 92.500
21619200.000 4582680.000 55.000
21619500.000 4582820.000 85.000
21619775.000 4582672.500 53.750
21619425.000 4583042.500 56.250
21619700.000 4582910.000 15.000
21619125.000 4582895.000 45.000
21619200.000 4583180.000 50.000
21618775.000 4582740.000 -75.000
21618650.000 4582940.000 -62.500
21618800.000 4582500.000 -110.000
21618700.000 4582700.000 -100.000
21618600.000 4582900.000 -90.000
21618500.000 4583100.000 -80.000
21618575.000 4583160.000 -38.750
21618400.000 4583300.000 -70.000
21618725.000 4583220.000 -5.000
21618950.000 4583070.000 42.500
21618500.000 4583380.000 -15.000
21618700.000 4583460.000 30.000
21618375.000 4583512.500 -42.500
21618600.000 4583605.000 30.000
21618300.000 4583452.500 -83.750
21618250.000 4583645.000 -70.000
21618400.000 4583710.000 7.500
21618200.000 4583605.000 -97.500
21618125.000 4583777.500 -97.500
21618350.000 4583875.000 18.750
21618100.000 4583757.500 -111.250
21618000.000 4583910.000 -125.000
21618300.000 4584040.000 30.000
21618150.000 4584170.000 22.500
21618475.000 4583940.000 30.000
21618400.000 4584100.000 30.000
21618700.000 4584052.500 -36.250
21618650.000 4583830.000 0.000
21618600.000 4584200.000 -30.000
21618775.000 4584120.000 -36.250
21618350.000 4584275.000 22.500
21618500.000 4584350.000 -22.500
21618200.000 4584400.000 15.000
21618300.000 4584450.000 15.000
21618000.000 4584300.000 15.000
21618075.000 4584535.000 7.500
21617925.000 4584072.500 -93.750
21617850.000 4584235.000 -62.500
21617850.000 4584430.000 7.500
21617775.000 4584397.500 -31.250
21617700.000 4584560.000 0.000
21618000.000 4584700.000 0.000
21617850.000 4584867.500 -3.750
21618075.000 4584982.500 10.000
21617625.000 4584762.500 -3.750
21617700.000 4585035.000 -7.500
21617850.000 4585115.000 20.000
21617550.000 4584965.000 -7.500
21617550.000 4585202.500 -11.250
21617825.000 4585347.500 30.000
21617475.000 4585167.500 -11.250
21617400.000 4585370.000 -15.000
21617700.000 4585530.000 40.000
21617250.000 4585745.000 -3.750
21617500.000 4585885.000 65.000
21618000.000 4585440.000 102.500
21617100.000 4586120.000 7.500
21617400.000 4586285.000 120.000
21617600.000 4586385.000 245.000
21616950.000 4586495.000 18.750
21617100.000 4586595.000 115.000
21616800.000 4586870.000 30.000
21616900.000 4586950.000 140.000
21617538.453 4586819.852 385.559
21616700.000 4587077.500 92.500
21616850.000 4587175.000 227.500
21617300.000 4587150.000 390.000
21616600.000 4587285.000 155.000
21616650.000 4587325.000 210.000
21616800.000 4587400.000 315.000
21616500.000 4587492.500 217.500
21616525.000 4587512.500 245.000
21616400.000 4587700.000 280.000
21616500.000 4587740.000 335.000
21616719.680 4587638.945 394.314
21616734.898 4587617.445 391.928
21616598.992 4587794.445 411.718
21616757.820 4587589.805 388.814
21616800.492 4587543.992 383.587
21616913.109 4587456.555 385.693
21617056.836 4587344.961 388.382
21617108.969 4587304.484 389.357
21617284.195 4587168.438 392.634
21617284.195 4587168.438 392.634
21617460.422 4586936.641 390.000
21617460.422 4586936.641 390.000
21617460.422 4586936.641 390.000
21617542.336 4586813.711 385.316
21617551.734 4586802.508 384.973
21617763.484 4586491.461 373.317
21617966.656 4586195.563 363.146
21617999.586 4586127.984 360.212
21618200.766 4585828.063 349.687
21618256.219 4585764.539 348.040
21618300.000 4585667.836 343.690
21618300.000 4585590.000 320.000
21618300.000 4585360.000 250.000
21618346.109 4585612.133 342.132
21618353.727 4585602.930 341.874
21618411.117 4585541.109 342.224
21618493.172 4585452.727 342.723
21618513.633 4585430.680 342.848
[...]
POINT_DATA 700
COLOR_SCALARS GocadColor 4
1 0.498039 0.313726 1
1 0.498039 0.313726 1
1 0.498039 0.313726 1
1 0.498039 0.313726 1
1 0.498039 0.313726 1
1 0.498039 0.313726 1
1 0.498039 0.313726 1
1 0.498039 0.313726 1
1 0.498039 0.313726 1
1 0.498039 0.313726 1
1 0.498039 0.313726 1
1 0.498039 0.313726 1
1 0.498039 0.313726 1
1 0.498039 0.313726 1
1 0.498039 0.313726 1
1 0.498039 0.313726 1
1 0.498039 0.313726 1
1 0.498039 0.313726 1
1 0.498039 0.313726 1
1 0.498039 0.313726 1
1 0.498039 0.313726 1
1 0.498039 0.313726 1
1 0.498039 0.313726 1
1 0.498039 0.313726 1
1 0.498039 0.313726 1
1 0.498039 0.313726 1
1 0.498039 0.313726 1
1 0.498039 0.313726 1
1 0.498039 0.313726 1
1 0.498039 0.313726 1
1 0.498039 0.313726 1
1 0.498039 0.313726 1
1 0.498039 0.313726 1
1 0.498039 0.313726 1
1 0.498039 0.313726 1
1 0.498039 0.313726 1
1 0.498039 0.313726 1
1 0.498039 0.313726 1
1 0.498039 0.313726 1
1 0.498039 0.313726 1
1 0.498039 0.313726 1
1 0.498039 0.313726 1
1 0.498039 0.313726 1
1 0.498039 0.313726 1
1 0.498039 0.313726 1
1 0.498039 0.313726 1
1 0.498039 0.313726 1
1 0.498039 0.313726 1
1 0.498039 0.313726 1
1 0.498039 0.313726 1
1 0.498039 0.313726 1
1 0.498039 0.313726 1
1 0.498039 0.313726 1
1 0.498039 0.313726 1
1 0.498039 0.313726 1
1 0.498039 0.313726 1
1 0.498039 0.313726 1
1 0.498039 0.313726 1
1 0.498039 0.313726 1
1 0.498039 0.313726 1
1 0.498039 0.313726 1
1 0.498039 0.313726 1
1 0.498039 0.313726 1
1 0.498039 0.313726 1
1 0.498039 0.313726 1
1 0.498039 0.313726 1
1 0.498039 0.313726 1
1 0.498039 0.313726 1
1 0.498039 0.313726 1
1 0.498039 0.313726 1
1 0.498039 0.313726 1
1 0.498039 0.313726 1
1 0.498039 0.313726 1
1 0.498039 0.313726 1
1 0.498039 0.313726 1
1 0.498039 0.313726 1
1 0.498039 0.313726 1
1 0.498039 0.313726 1
1 0.498039 0.313726 1
1 0.498039 0.313726 1
1 0.498039 0.313726 1
1 0.498039 0.313726 1
1 0.498039 0.313726 1
1 0.498039 0.313726 1
1 0.498039 0.313726 1
1 0.498039 0.313726 1
1 0.498039 0.313726 1
1 0.498039 0.313726 1
1 0.498039 0.313726 1
1 0.498039 0.313726 1
1 0.498039 0.313726 1
1 0.498039 0.313726 1
1 0.498039 0.313726 1
1 0.498039 0.313726 1
1 0.498039 0.313726 1
1 0.498039 0.313726 1
1 0.498039 0.313726 1
1 0.498039 0.313726 1
1 0.498039 0.313726 1
1 0.498039 0.313726 1
1 0.498039 0.313726 1
1 0.498039 0.313726 1
1 0.498039 0.313726 1
1 0.498039 0.313726 1
1 0.498039 0.313726 1
1 0.498039 0.313726 1
1 0.498039 0.313726 1
1 0.498039 0.313726 1
1 0.498039 0.313726 1
1 0.498039 0.313726 1
1 0.498039 0.313726 1
1 0.498039 0.313726 1
1 0.498039 0.313726 1
1 0.498039 0.313726 1
1 0.498039 0.313726 1
1 0.498039 0.313726 1
1 0.498039 0.313726 1
1 0.498039 0.313726 1
1 0.498039 0.313726 1
1 0.498039 0.313726 1
1 0.498039 0.313726 1
1 0.498039 0.313726 1
1 0.498039 0.313726 1
1 0.498039 0.313726 1
1 0.498039 0.313726 1
1 0.498039 0.313726 1
1 0.498039 0.313726 1
1 0.498039 0.313726 1
1 0.498039 0.313726 1
1 0.498039 0.313726 1
1 0.498039 0.313726 1
1 0.498039 0.313726 1
1 0.498039 0.313726 1
1 0.498039 0.313726 1
1 0.498039 0.313726 1
1 0.498039 0.313726 1
1 0.498039 0.313726 1
1 0.498039 0.313726 1
1 0.498039 0.313726 1
1 0.498039 0.313726 1
1 0.498039 0.313726 1
1 0.498039 0.313726 1
1 0.498039 0.313726 1
1 0.498039 0.313726 1
1 0.498039 0.313726 1
1 0.498039 0.313726 1
1 0.498039 0.313726 1
1 0.498039 0.313726 1
1 0.498039 0.313726 1
1 0.498039 0.313726 1
1 0.498039 0.313726 1
1 0.498039 0.313726 1
1 0.498039 0.313726 1
1 0.498039 0.313726 1
1 0.498039 0.313726 1
1 0.498039 0.313726 1
1 0.498039 0.313726 1
1 0.498039 0.313726 1
1 0.498039 0.313726 1
1 0.498039 0.313726 1
1 0.498039 0.313726 1
1 0.498039 0.313726 1
1 0.498039 0.313726 1
1 0.498039 0.313726 1
1 0.498039 0.313726 1
1 0.498039 0.313726 1
1 0.498039 0.313726 1
1 0.498039 0.313726 1
1 0.498039 0.313726 1
1 0.498039 0.313726 1
1 0.498039 0.313726 1
1 0.498039 0.313726 1
1 0.498039 0.313726 1
1 0.498039 0.313726 1
1 0.498039 0.313726 1
1 0.498039 0.313726 1
1 0.498039 0.313726 1
1 0.498039 0.313726 1
1 0.498039 0.313726 1
1 0.498039 0.313726 1
1 0.498039 0.313726 1
1 0.498039 0.313726 1
1 0.498039 0.313726 1
1 0.498039 0.313726 1
1 0.498039 0.313726 1
1 0.498039 0.313726 1
1 0.498039 0.313726 1
1 0.498039 0.313726 1
1 0.498039 0.313726 1
1 0.498039 0.313726 1
1 0.498039 0.313726 1
1 0.498039 0.313726 1
1 0.498039 0.313726 1
1 0.498039 0.313726 1
1 0.498039 0.313726 1
1 0.498039 0.313726 1
1 0.498039 0.313726 1
1 0.498039 0.313726 1
1 0.498039 0.313726 1
1 0.498039 0.313726 1
1 0.498039 0.313726 1
1 0.498039 0.313726 1
1 0.498039 0.313726 1
1 0.498039 0.313726 1
1 0.498039 0.313726 1
1 0.498039 0.313726 1
1 0.498039 0.313726 1
1 0.498039 0.313726 1
1 0.498039 0.313726 1
1 0.498039 0.313726 1
1 0.498039 0.313726 1
1 0.498039 0.313726 1
1 0.498039 0.313726 1
1 0.498039 0.313726 1
1 0.498039 0.313726 1
1 0.498039 0.313726 1
1 0.498039 0.313726 1
1 0.498039 0.313726 1
1 0.498039 0.313726 1
1 0.498039 0.313726 1
1 0.498039 0.313726 1
1 0.498039 0.313726 1
1 0.498039 0.313726 1
1 0.498039 0.313726 1
1 0.498039 0.313726 1
1 0.498039 0.313726 1
1 0.498039 0.313726 1
1 0.498039 0.313726 1
1 0.498039 0.313726 1
1 0.498039 0.313726 1
1 0.498039 0.313726 1
1 0.498039 0.313726 1
1 0.498039 0.313726 1
1 0.498039 0.313726 1
1 0.498039 0.313726 1
1 0.498039 0.313726 1
1 0.498039 0.313726 1
1 0.498039 0.313726 1
1 0.498039 0.313726 1
1 0.498039 0.313726 1
1 0.498039 0.313726 1
1 0.498039 0.313726 1
1 0.498039 0.313726 1
1 0.498039 0.313726 1
1 0.498039 0.313726 1
1 0.498039 0.313726 1
1 0.498039 0.313726 1
1 0.498039 0.313726 1
1 0.498039 0.313726 1
1 0.498039 0.313726 1
1 0.498039 0.313726 1
1 0.498039 0.313726 1
1 0.498039 0.313726 1
1 0.498039 0.313726 1
1 0.498039 0.313726 1
1 0.498039 0.313726 1
1 0.498039 0.313726 1
1 0.498039 0.313726 1
1 0.498039 0.313726 1
1 0.498039 0.313726 1
1 0.498039 0.313726 1
1 0.498039 0.313726 1
1 0.498039 0.313726 1
1 0.498039 0.313726 1
1 0.498039 0.313726 1
1 0.498039 0.313726 1
1 0.498039 0.313726 1
1 0.498039 0.313726 1
1 0.498039 0.313726 1
1 0.498039 0.313726 1
1 0.498039 0.313726 1
1 0.498039 0.313726 1
1 0.498039 0.313726 1
1 0.498039 0.313726 1
1 0.498039 0.313726 1
1 0.498039 0.313726 1
1 0.498039 0.313726 1
1 0.498039 0.313726 1
1 0.498039 0.313726 1
1 0.498039 0.313726 1
1 0.498039 0.313726 1
1 0.498039 0.313726 1
1 0.498039 0.313726 1
1 0.498039 0.313726 1
1 0.498039 0.313726 1
1 0.498039 0.313726 1
1 0.498039 0.313726 1
1 0.498039 0.313726 1
1 0.498039 0.313726 1
1 0.498039 0.313726 1
1 0.498039 0.313726 1
1 0.498039 0.313726 1
1 0.498039 0.313726 1
1 0.498039 0.313726 1
1 0.498039 0.313726 1
1 0.498039 0.313726 1
1 0.498039 0.313726 1
1 0.498039 0.313726 1
1 0.498039 0.313726 1
1 0.498039 0.313726 1
1 0.498039 0.313726 1
1 0.498039 0.313726 1
1 0.498039 0.313726 1
1 0.498039 0.313726 1
1 0.498039 0.313726 1
1 0.498039 0.313726 1
1 0.498039 0.313726 1
1 0.498039 0.313726 1
1 0.498039 0.313726 1
1 0.498039 0.313726 1
1 0.498039 0.313726 1
1 0.498039 0.313726 1
1 0.498039 0.313726 1
1 0.498039 0.313726 1
1 0.498039 0.313726 1
1 0.498039 0.313726 1
1 0.498039 0.313726 1
1 0.498039 0.313726 1
1 0.498039 0.313726 1
1 0.498039 0.313726 1
1 0.498039 0.313726 1
1 0.498039 0.313726 1
1 0.498039 0.313726 1
1 0.498039 0.313726 1
1 0.498039 0.313726 1
1 0.498039 0.313726 1
1 0.498039 0.313726 1
1 0.498039 0.313726 1
1 0.498039 0.313726 1
1 0.498039 0.313726 1
1 0.498039 0.313726 1
1 0.498039 0.313726 1
1 0.498039 0.313726 1
1 0.498039 0.313726 1
1 0.498039 0.313726 1
1 0.498039 0.313726 1
1 0.498039 0.313726 1
1 0.498039 0.313726 1
1 0.498039 0.313726 1
1 0.498039 0.313726 1
1 0.498039 0.313726 1
1 0.498039 0.313726 1
1 0.498039 0.313726 1
1 0.498039 0.313726 1
1 0.498039 0.313726 1
1 0.498039 0.313726 1
1 0.498039 0.313726 1
1 0.498039 0.313726 1
1 0.498039 0.313726 1
1 0.498039 0.313726 1
1 0.498039 0.313726 1
1 0.498039 0.313726 1
1 0.498039 0.313726 1
1 0.498039 0.313726 1
1 0.498039 0.313726 1
1 0.498039 0.313726 1
1 0.498039 0.313726 1
1 0.498039 0.313726 1
1 0.498039 0.313726 1
1 0.498039 0.313726 1
1 0.498039 0.313726 1
1 0.498039 0.313726 1
1 0.498039 0.313726 1
1 0.498039 0.313726 1
1 0.498039 0.313726 1
1 0.498039 0.313726 1
1 0.498039 0.313726 1
1 0.498039 0.313726 1
1 0.498039 0.313726 1
1 0.498039 0.313726 1
1 0.498039 0.313726 1
1 0.498039 0.313726 1
1 0.498039 0.313726 1
1 0.498039 0.313726 1
1 0.498039 0.313726 1
1 0.498039 0.313726 1
1 0.498039 0.313726 1
1 0.498039 0.313726 1
1 0.498039 0.313726 1
1 0.498039 0.313726 1
1 0.498039 0.313726 1
1 0.498039 0.313726 1
1 0.498039 0.313726 1
1 0.498039 0.313726 1
1 0.498039 0.313726 1
1 0.498039 0.313726 1
1 0.498039 0.313726 1
1 0.498039 0.313726 1
1 0.498039 0.313726 1
1 0.498039 0.313726 1
1 0.498039 0.313726 1
1 0.498039 0.313726 1
1 0.498039 0.313726 1
1 0.498039 0.313726 1
1 0.498039 0.313726 1
1 0.498039 0.313726 1
1 0.498039 0.313726 1
1 0.498039 0.313726 1
1 0.498039 0.313726 1
1 0.498039 0.313726 1
1 0.498039 0.313726 1
1 0.498039 0.313726 1
1 0.498039 0.313726 1
1 0.498039 0.313726 1
1 0.498039 0.313726 1
1 0.498039 0.313726 1
1 0.498039 0.313726 1
1 0.498039 0.313726 1
1 0.498039 0.313726 1
1 0.498039 0.313726 1
1 0.498039 0.313726 1
1 0.498039 0.313726 1
1 0.498039 0.313726 1
1 0.498039 0.313726 1
1 0.498039 0.313726 1
1 0.498039 0.313726 1
1 0.498039 0.313726 1
1 0.498039 0.313726 1
1 0.498039 0.313726 1
1 0.498039 0.313726 1
1 0.498039 0.313726 1
1 0.498039 0.313726 1
1 0.498039 0.313726 1
1 0.498039 0.313726 1
1 0.498039 0.313726 1
1 0.498039 0.313726 1
1 0.498039 0.313726 1
1 0.498039 0.313726 1
1 0.498039 0.313726 1
1 0.498039 0.313726 1
1 0.498039 0.313726 1
1 0.498039 0.313726 1
1 0.498039 0.313726 1
1 0.498039 0.313726 1
1 0.498039 0.313726 1
1 0.498039 0.313726 1
1 0.498039 0.313726 1
1 0.498039 0.313726 1
1 0.498039 0.313726 1
1 0.498039 0.313726 1
1 0.498039 0.313726 1
1 0.498039 0.313726 1
1 0.498039 0.313726 1
1 0.498039 0.313726 1
1 0.498039 0.313726 1
1 0.498039 0.313726 1
1 0.498039 0.313726 1
1 0.498039 0.313726 1
1 0.498039 0.313726 1
1 0.498039 0.313726 1
1 0.498039 0.313726 1
1 0.498039 0.313726 1
1 0.498039 0.313726 1
1 0.498039 0.313726 1
1 0.498039 0.313726 1
1 0.498039 0.313726 1
1 0.498039 0.313726 1
1 0.498039 0.313726 1
1 0.498039 0.313726 1
1 0.498039 0.313726 1
1 0.498039 0.313726 1
1 0.498039 0.313726 1
1 0.498039 0.313726 1
1 0.498039 0.313726 1
1 0.498039 0.313726 1
1 0.498039 0.313726 1
1 0.498039 0.313726 1
1 0.498039 0.313726 1
1 0.498039 0.313726 1
1 0.498039 0.313726 1
1 0.498039 0.313726 1
1 0.498039 0.313726 1
1 0.498039 0.313726 1
1 0.498039 0.313726 1
1 0.498039 0.313726 1
1 0.498039 0.313726 1
1 0.498039 0.313726 1
1 0.498039 0.313726 1
1 0.498039 0.313726 1
1 0.498039 0.313726 1
1 0.498039 0.313726 1
1 0.498039 0.313726 1
1 0.498039 0.313726 1
1 0.498039 0.313726 1
1 0.498039 0.313726 1
1 0.498039 0.313726 1
1 0.498039 0.313726 1
1 0.498039 0.313726 1
1 0.498039 0.313726 1
1 0.498039 0.313726 1
1 0.498039 0.313726 1
1 0.498039 0.313726 1
1 0.498039 0.313726 1
1 0.498039 0.313726 1
1 0.498039 0.313726 1
1 0.498039 0.313726 1
1 0.498039 0.313726 1
1 0.498039 0.313726 1
1 0.498039 0.313726 1
1 0.498039 0.313726 1
1 0.498039 0.313726 1
1 0.498039 0.313726 1
1 0.498039 0.313726 1
1 0.498039 0.313726 1
1 0.498039 0.313726 1
1 0.498039 0.313726 1
1 0.498039 0.313726 1
1 0.498039 0.313726 1
1 0.498039 0.313726 1
1 0.498039 0.313726 1
1 0.498039 0.313726 1
1 0.498039 0.313726 1
1 0.498039 0.313726 1
1 0.498039 0.313726 1
1 0.498039 0.313726 1
1 0.498039 0.313726 1
1 0.498039 0.313726 1
1 0.498039 0.313726 1
1 0.498039 0.313726 1
1 0.498039 0.313726 1
1 0.498039 0.313726 1
1 0.498039 0.313726 1
1 0.498039 0.313726 1
1 0.498039 0.313726 1
1 0.498039 0.313726 1
1 0.498039 0.313726 1
1 0.498039 0.313726 1
1 0.498039 0.313726 1
1 0.498039 0.313726 1
1 0.498039 0.313726 1
1 0.498039 0.313726 1
1 0.498039 0.313726 1
1 0.498039 0.313726 1
1 0.498039 0.313726 1
1 0.498039 0.313726 1
1 0.498039 0.313726 1
1 0.498039 0.313726 1
1 0.498039 0.313726 1
1 0.498039 0.313726 1
1 0.498039 0.313726 1
1 0.498039 0.313726 1
1 0.498039 0.313726 1
1 0.498039 0.313726 1
1 0.498039 0.313726 1
1 0.498039 0.313726 1
1 0.498039 0.313726 1
1 0.498039 0.313726 1
1 0.498039 0.313726 1
1 0.498039 0.313726 1
1 0.498039 0.313726 1
1 0.498039 0.313726 1
1 0.498039 0.313726 1
1 0.498039 0.313726 1
1 0.498039 0.313726 1
1 0.498039 0.313726 1
1 0.498039 0.313726 1
1 0.498039 0.313726 1
1 0.498039 0.313726 1
1 0.498039 0.313726 1
1 0.498039 0.313726 1
1 0.498039 0.313726 1
1 0.498039 0.313726 1
1 0.498039 0.313726 1
1 0.498039 0.313726 1
1 0.498039 0.313726 1
1 0.498039 0.313726 1
1 0.498039 0.313726 1
1 0.498039 0.313726 1
1 0.498039 0.313726 1
1 0.498039 0.313726 1
1 0.498039 0.313726 1
1 0.498039 0.313726 1
1 0.498039 0.313726 1
1 0.498039 0.313726 1
1 0.498039 0.313726 1
1 0.498039 0.313726 1
1 0.498039 0.313726 1
1 0.498039 0.313726 1
1 0.498039 0.313726 1
1 0.498039 0.313726 1
1 0.498039 0.313726 1
1 0.498039 0.313726 1
1 0.498039 0.313726 1
1 0.498039 0.313726 1
1 0.498039 0.313726 1
1 0.498039 0.313726 1
1 0.498039 0.313726 1
1 0.498039 0.313726 1
1 0.498039 0.313726 1
1 0.498039 0.313726 1
1 0.498039 0.313726 1
1 0.498039 0.313726 1
1 0.498039 0.313726 1
1 0.498039 0.313726 1
1 0.498039 0.313726 1
1 0.498039 0.313726 1
1 0.498039 0.313726 1
1 0.498039 0.313726 1
1 0.498039 0.313726 1
1 0.498039 0.313726 1
1 0.498039 0.313726 1
1 0.498039 0.313726 1
1 0.498039 0.313726 1
1 0.498039 0.313726 1
1 0.498039 0.313726 1
1 0.498039 0.313726 1
1 0.498039 0.313726 1
1 0.498039 0.313726 1
1 0.498039 0.313726 1
1 0.498039 0.313726 1
1 0.498039 0.313726 1
1 0.498039 0.313726 1
1 0.498039 0.313726 1
1 0.498039 0.313726 1
1 0.498039 0.313726 1
1 0.498039 0.313726 1
1 0.498039 0.313726 1
1 0.498039 0.313726 1
1 0.498039 0.313726 1
1 0.498039 0.313726 1
1 0.498039 0.313726 1
1 0.498039 0.313726 1
1 0.498039 0.313726 1
1 0.498039 0.313726 1
1 0.498039 0.313726 1
1 0.498039 0.313726 1
1 0.498039 0.313726 1
1 0.498039 0.313726 1
1 0.498039 0.313726 1
1 0.498039 0.313726 1
1 0.498039 0.313726 1
1 0.498039 0.313726 1
1 0.498039 0.313726 1
1 0.498039 0.313726 1
1 0.498039 0.313726 1
1 0.498039 0.313726 1
1 0.498039 0.313726 1
1 0.498039 0.313726 1
1 0.498039 0.313726 1
1 0.498039 0.313726 1
1 0.498039 0.313726 1
1 0.498039 0.313726 1
1 0.498039 0.313726 1
1 0.498039 0.313726 1
1 0.498039 0.313726 1
1 0.498039 0.313726 1
1 0.498039 0.313726 1
1 0.498039 0.313726 1
1 0.498039 0.313726 1
1 0.498039 0.313726 1
1 0.498039 0.313726 1
1 0.498039 0.313726 1
1 0.498039 0.313726 1
1 0.498039 0.313726 1
1 0.498039 0.313726 1
1 0.498039 0.313726 1
1 0.498039 0.313726 1
1 0.498039 0.313726 1
1 0.498039 0.313726 1
1 0.498039 0.313726 1
1 0.498039 0.313726 1
1 0.498039 0.313726 1
1 0.498039 0.313726 1
1 0.498039 0.313726 1
1 0.498039 0.313726 1
1 0.498039 0.313726 1
1 0.498039 0.313726 1
1 0.498039 0.313726 1
1 0.498039 0.313726 1
1 0.498039 0.313726 1
1 0.498039 0.313726 1
1 0.498039 0.313726 1
1 0.498039 0.313726 1
1 0.498039 0.313726 1
1 0.498039 0.313726 1
1 0.498039 0.313726 1
1 0.498039 0.313726 1
1 0.498039 0.313726 1
1 0.498039 0.313726 1
1 0.498039 0.313726 1
1 0.498039 0.313726 1
1 0.498039 0.313726 1
1 0.498039 0.313726 1
1 0.498039 0.313726 1
1 0.498039 0.313726 1
1 0.498039 0.313726 1
1 0.498039 0.313726 1
1 0.498039 0.313726 1
1 0.498039 0.313726 1
1 0.498039 0.313726 1
1 0.498039 0.313726 1
1 0.498039 0.313726 1
1 0.498039 0.313726 1
1 0.498039 0.313726 1
1 0.498039 0.313726 1
1 0.498039 0.313726 1
1 0.498039 0.313726 1
1 0.498039 0.313726 1
1 0.498039 0.313726 1
1 0.498039 0.313726 1

