# vtk DataFile Version 3.0
Gocad TSurf to VTK
ASCII
DATASET POLYDATA
POINTS 354 float
21556350.000 4569310.000 52.500
21556325.000 4569450.000 -41.250
21556100.000 4569367.500 63.750
21556000.000 4569480.000 5.000
21556200.000 4569255.000 122.500
21556450.000 4569345.000 -25.000
21556525.000 4569222.500 30.000
21556375.000 4569467.500 -80.000
21556600.000 4569410.000 -37.500
21556300.000 4569590.000 -135.000
21556600.000 4569565.000 -98.750
21556600.000 4569720.000 -160.000
21556500.000 4569745.000 -151.250
21556650.000 4569585.000 -102.500
21556700.000 4569450.000 -45.000
21556750.000 4569617.500 -122.500
21557100.000 4569920.000 -190.000
21557000.000 4569942.500 -173.750
21557125.000 4569767.500 -145.000
21556900.000 4569515.000 -85.000
21557175.000 4569782.500 -172.500
21557250.000 4569645.000 -155.000
21557400.000 4569872.500 -142.500
21557400.000 4569705.000 -135.000
21557400.000 4570040.000 -150.000
21557325.000 4570080.000 -171.250
21557475.000 4569895.000 -170.000
21557550.000 4569750.000 -190.000
21557600.000 4569935.000 -170.000
21557675.000 4569955.000 -163.750
21557800.000 4569830.000 -190.000
21557950.000 4569870.000 -177.500
21558000.000 4569725.000 -210.000
21557625.000 4569605.000 -210.000
21558225.000 4569785.000 -191.250
21558200.000 4569620.000 -230.000
21558500.000 4569700.000 -205.000
21557700.000 4569460.000 -230.000
21558175.000 4569465.000 -210.000
21557800.000 4569345.000 -210.000
21558400.000 4569525.000 -191.250
21558300.000 4569350.000 -177.500
21558150.000 4569310.000 -190.000
21558200.000 4569175.000 -163.750
21558125.000 4569155.000 -170.000
21557900.000 4569230.000 -190.000
21558100.000 4569000.000 -150.000
21558000.000 4569115.000 -170.000
21557900.000 4568960.000 -95.000
21557850.000 4569085.000 -128.750
21557800.000 4569210.000 -162.500
21557750.000 4569195.000 -100.000
21557750.000 4569335.000 -196.250
21557725.000 4569327.500 -165.000
21557500.000 4569260.000 -82.500
21557400.000 4569370.000 -120.000
21557600.000 4569150.000 -45.000
21557500.000 4569115.000 -30.000
21557700.000 4569040.000 -7.500
21557550.000 4568987.500 15.000
21557775.000 4569062.500 -35.000
21557800.000 4568930.000 30.000
21557775.000 4568830.000 -38.750
21557700.000 4568807.500 55.000
21557925.000 4568860.000 -80.000
21557750.000 4568720.000 -10.000
21557650.000 4568700.000 17.500
21557575.000 4568580.000 60.000
21557600.000 4568685.000 80.000
21557525.000 4568570.000 73.750
21557550.000 4568755.000 77.500
21557500.000 4568650.000 95.000
21557600.000 4568860.000 60.000
21557400.000 4568800.000 45.000
21557400.000 4568710.000 66.250
21557400.000 4568942.500 3.750
21557350.000 4568927.500 31.250
21557200.000 4568890.000 72.500
21557300.000 4569055.000 17.500
21557200.000 4569030.000 45.000
21557400.000 4569085.000 -37.500
21557250.000 4569182.500 3.750
21557400.000 4569227.500 -78.750
21557450.000 4569242.500 -75.000
21557200.000 4569310.000 -10.000
21557200.000 4569170.000 17.500
21557175.000 4569462.500 -55.000
21557325.000 4569507.500 -137.500
21557050.000 4569412.500 -47.500
21556800.000 4569180.000 70.000
21557150.000 4569615.000 -100.000
21557400.000 4569537.500 -127.500
21556750.000 4569315.000 12.500
21556600.000 4569255.000 23.750
21556600.000 4569100.000 85.000
21556375.000 4569170.000 146.250
21556725.000 4569007.500 120.000
21556575.000 4568955.000 236.250
21556875.000 4569067.500 108.750
21556850.000 4568915.000 155.000
21556900.000 4569072.500 77.500
21556950.000 4568955.000 147.500
21557000.000 4568965.000 85.000
21557100.000 4568857.500 92.500
21557025.000 4568842.500 186.250
21557200.000 4568750.000 100.000
21557100.000 4568730.000 225.000
21557250.000 4568672.500 107.500
21557225.000 4568667.500 110.000
21557400.000 4568710.000 66.250
21557300.000 4568595.000 115.000
21557400.000 4568620.000 87.500
21557400.000 4568620.000 87.500
21557350.000 4568517.500 122.500
21557275.000 4568502.500 130.000
21557400.000 4568530.000 108.750
21557400.000 4568440.000 130.000
21557400.000 4568530.000 108.750
21557450.000 4568545.000 112.500
21557500.000 4568562.500 105.000
21557300.000 4568420.000 140.000
21557250.000 4568497.500 161.250
21557250.000 4568585.000 120.000
21557300.000 4568410.000 250.000
21557250.000 4568490.000 243.750
21557200.000 4568575.000 182.500
21557200.000 4568570.000 237.500
21557150.000 4568652.500 203.750
21557150.000 4568650.000 231.250
21556975.000 4568822.500 190.000
21556925.000 4568805.000 228.750
21556750.000 4568880.000 232.500
21556400.000 4569030.000 240.000
21556300.000 4569142.500 181.250
21556275.000 4569130.000 195.000
21556150.000 4569230.000 150.000
21556225.000 4569112.500 197.500
21556050.000 4569195.000 155.000
21556175.000 4569095.000 195.000
21556150.000 4569077.500 228.750
21555950.000 4569160.000 150.000
21555875.000 4569277.500 112.500
21555900.000 4569125.000 217.500
21555725.000 4569225.000 105.000
21555650.000 4569172.500 206.250
21555700.000 4569360.000 70.000
21555500.000 4569290.000 60.000
21555900.000 4569430.000 60.000
21555800.000 4569455.000 32.500
21556025.000 4569330.000 105.000
21555900.000 4569492.500 7.500
21555975.000 4569530.000 -33.750
21555900.000 4569555.000 -45.000
21555700.000 4569480.000 5.000
21555950.000 4569580.000 -72.500
21556100.000 4569635.000 -142.500
21555900.000 4569617.500 -97.500
21555925.000 4569630.000 -111.250
21555600.000 4569505.000 -22.500
21555900.000 4569680.000 -150.000
21555600.000 4569445.000 10.000
21555650.000 4569402.500 40.000
21555550.000 4569487.500 -20.000
21555500.000 4569410.000 5.000
21555500.000 4569530.000 -50.000
21555500.000 4569470.000 -22.500
21555525.000 4569715.000 -36.250
21555825.000 4569827.500 -111.250
21555475.000 4569697.500 -20.000
21555450.000 4569865.000 10.000
21555400.000 4569672.500 -36.250
21555100.000 4569530.000 -58.750
21555100.000 4569720.000 -37.500
21555100.000 4569340.000 -80.000
21555025.000 4569505.000 -52.500
21555175.000 4569310.000 -11.250
21554800.000 4569160.000 11.250
21555475.000 4569452.500 11.250
21555250.000 4569280.000 57.500
21555450.000 4569375.000 72.500
21555500.000 4569350.000 32.500
21555325.000 4569250.000 126.250
21555200.000 4569200.000 133.750
21555425.000 4569297.500 133.750
21555400.000 4569220.000 195.000
21555075.000 4569147.500 142.500
21555025.000 4569125.000 152.500
21555000.000 4569180.000 72.500
21554750.000 4569075.000 90.000
21554425.000 4569002.500 37.500
21554600.000 4569140.000 -50.000
21554650.000 4569030.000 110.000
21554275.000 4568935.000 67.500
21555000.000 4569115.000 183.750
21554600.000 4569010.000 172.500
21554200.000 4568905.000 161.250
21553900.000 4568840.000 25.000
21553800.000 4568800.000 150.000
21554100.000 4568930.000 -15.000
21554100.000 4569122.500 47.500
21554250.000 4569190.000 17.500
21554025.000 4569092.500 141.250
21554250.000 4569385.000 132.500
21554300.000 4569405.000 70.000
21554475.000 4569677.500 123.750
21554500.000 4569687.500 92.500
21554400.000 4569450.000 50.000
21554700.000 4569970.000 115.000
21554550.000 4569710.000 82.500
21554675.000 4569762.500 73.750
21554650.000 4569555.000 32.500
21554800.000 4569812.500 66.250
21554900.000 4569655.000 17.500
21554800.000 4570000.000 30.000
21554875.000 4569835.000 2.500
21555075.000 4570430.000 121.250
21555150.000 4570452.500 57.500
21555100.000 4570100.000 5.000
21555450.000 4570890.000 127.500
21555500.000 4570905.000 85.000
21555375.000 4570527.500 38.750
21555825.000 4571350.000 133.750
21555850.000 4571357.500 112.500
21555650.000 4570955.000 72.500
21556200.000 4571810.000 140.000
21555925.000 4571382.500 106.250
21556000.000 4571407.500 122.500
21555800.000 4571005.000 105.000
21556050.000 4571425.000 106.250
21555900.000 4571040.000 72.500
21556150.000 4571452.500 120.000
21556100.000 4571095.000 100.000
21556200.000 4571467.500 112.500
21556200.000 4571125.000 85.000
21556275.000 4571495.000 102.500
21556350.000 4571180.000 65.000
21556200.000 4571780.000 70.000
21556275.000 4571472.500 50.000
21556475.000 4572112.500 122.500
21556400.000 4571740.000 60.000
21556292.188 4571918.945 151.733
21556475.000 4572124.930 151.503
21556584.344 4572248.125 151.366
21556633.172 4572303.746 152.697
21556706.266 4572318.156 154.005
21556625.000 4572082.500 115.000
21556790.750 4572334.816 155.518
21556850.000 4572357.133 156.684
21556850.000 4572030.000 92.500
21556700.000 4571670.000 30.000
21556961.250 4572399.039 158.875
21557000.000 4572390.000 155.000
21557000.000 4572390.000 147.500
21557005.078 4572415.547 159.737
21557011.688 4572418.035 159.867
21557014.578 4572425.000 159.983
21557033.828 4572471.180 160.748
21557049.781 4572508.668 161.375
21557150.000 4572742.500 153.750
21557000.000 4572385.000 112.500
21557150.000 4572745.605 175.485
21557300.000 4573100.000 195.000
21557200.000 4572727.500 147.500
21557292.563 4573082.660 195.557
21557300.000 4573100.230 196.604
21557100.000 4572355.000 100.000
21557275.000 4572727.500 140.000
21557150.000 4572355.000 95.000
21557400.000 4573100.000 185.000
21557275.000 4572727.500 140.000
21557150.000 4572355.000 95.000
21557025.000 4571982.500 50.000
21557025.000 4571982.500 50.000
21556900.000 4571610.000 5.000
21557000.000 4571982.500 52.500
21556850.000 4572027.500 71.250
21556850.000 4572030.000 88.750
21556700.000 4571410.000 20.000
21556650.000 4571390.000 20.000
21556850.000 4571365.000 1.250
21556700.000 4571150.000 10.000
21556800.000 4571120.000 -2.500
21556700.000 4570890.000 0.000
21556600.000 4571110.000 10.000
21556750.000 4570875.000 -6.250
21556700.000 4570630.000 -10.000
21556550.000 4570830.000 0.000
21556500.000 4570550.000 -10.000
21556475.000 4570847.500 7.500
21556700.000 4570475.000 -38.750
21556550.000 4570415.000 -38.750
21556800.000 4570522.500 -66.250
21556900.000 4570415.000 -122.500
21556700.000 4570320.000 -67.500
21557000.000 4570307.500 -178.750
21556700.000 4570165.000 -96.250
21556600.000 4570280.000 -67.500
21557100.000 4570200.000 -235.000
21556700.000 4570010.000 -125.000
21556650.000 4570145.000 -96.250
21556800.000 4569987.500 -141.250
21556675.000 4569937.500 -133.750
21557100.000 4570130.000 -223.750
21556900.000 4569965.000 -157.500
21557175.000 4570160.000 -213.750
21557100.000 4570060.000 -212.500
21557250.000 4570120.000 -192.500
21557100.000 4569990.000 -201.250
21556625.000 4569792.500 -151.250
21556650.000 4569865.000 -142.500
21556400.000 4569770.000 -142.500
21556300.000 4569795.000 -133.750
21556275.000 4569647.500 -132.500
21556250.000 4569705.000 -130.000
21556200.000 4569612.500 -138.750
21556225.000 4569762.500 -127.500
21556200.000 4569820.000 -125.000
21556000.000 4569657.500 -146.250
21556575.000 4570117.500 -86.250
21556200.000 4569975.000 -86.250
21556450.000 4570225.000 -47.500
21556150.000 4569960.000 -78.750
21556100.000 4570100.000 -32.500
21555925.000 4569855.000 -97.500
21555950.000 4570030.000 -45.000
21555750.000 4569975.000 -72.500
21555550.000 4569900.000 -22.500
21555575.000 4570085.000 -8.750
21555425.000 4570032.500 40.000
21555300.000 4569815.000 -22.500
21555200.000 4569957.500 -8.750
21555100.000 4569910.000 -16.250
21555400.000 4570200.000 70.000
21555600.000 4570602.500 87.500
21555600.000 4570270.000 5.000
21555750.000 4570655.000 38.750
21556000.000 4570380.000 60.000
21556050.000 4570737.500 80.000
21555975.000 4570205.000 7.500
21555675.000 4570122.500 -33.750
21556050.000 4570240.000 13.750
21556200.000 4570285.000 -8.750
21556200.000 4570130.000 -47.500
21556200.000 4570440.000 30.000
21556325.000 4570332.500 -8.750
21556200.000 4570782.500 57.500
21556425.000 4570865.000 27.500
21556425.000 4570857.500 10.000
21556350.000 4571165.000 30.000
21556450.000 4571145.000 25.000
21556425.000 4571442.500 42.500
21554950.000 4569670.000 -25.000
21555000.000 4569497.500 -31.250
21554625.000 4569347.500 -8.750

POLYGONS 634 2536
3 178 177 175
3 90 18 19
3 75 73 72
3 162 165 163
3 308 309 12
3 114 113 110
3 61 63 62
3 137 149 141
3 83 55 82
3 287 344 290
3 144 146 184
3 122 121 114
3 241 240 238
3 63 70 68
3 182 187 185
3 256 255 252
3 342 319 320
3 303 302 300
3 15 14 19
3 331 214 172
3 56 57 59
3 215 216 218
3 77 79 103
3 111 113 115
3 278 280 277
3 300 309 303
3 123 120 121
3 57 80 59
3 311 313 310
3 293 296 295
3 66 69 67
3 98 89 96
3 181 182 184
3 131 96 97
3 39 50 45
3 145 147 148
3 267 265 272
3 22 24 16
3 324 322 338
3 272 273 271
3 249 278 277
3 231 233 230
3 52 37 53
3 259 252 276
3 165 164 177
3 53 37 54
3 120 116 113
3 18 16 15
3 77 105 73
3 9 11 12
3 99 96 131
3 48 61 62
3 240 224 238
3 37 35 32
3 282 285 284
3 100 84 89
3 327 325 339
3 207 209 211
3 335 337 229
3 227 335 229
3 100 89 98
3 42 39 45
3 172 170 329
3 223 227 225
3 185 186 184
3 154 152 151
3 288 287 286
3 30 27 33
3 81 84 85
3 124 123 121
3 183 184 146
3 140 143 142
3 72 73 70
3 193 191 194
3 158 164 162
3 81 85 78
3 166 167 326
3 317 316 159
3 295 294 293
3 255 251 252
3 69 116 67
3 247 246 245
3 13 11 10
3 70 71 68
3 199 200 203
3 224 221 222
3 341 342 344
3 183 179 181
3 52 53 50
3 66 68 69
3 54 57 56
3 15 11 13
3 51 53 56
3 136 137 138
3 133 134 132
3 191 192 194
3 334 327 339
3 295 297 294
3 85 79 78
3 104 101 129
3 321 316 319
3 209 212 211
3 326 169 166
3 169 168 166
3 96 94 97
3 30 33 32
3 312 313 314
3 311 316 315
3 27 23 33
3 19 92 88
3 175 164 173
3 290 344 320
3 41 40 38
3 263 261 264
3 153 160 161
3 1 3 2
3 23 91 33
3 203 200 206
3 136 138 132
3 300 298 301
3 236 224 234
3 155 315 317
3 306 307 25
3 250 248 251
3 246 244 245
3 293 292 289
3 310 313 312
3 56 59 58
3 126 125 127
3 82 80 57
3 179 183 180
3 278 349 283
3 239 237 350
3 259 276 275
3 213 207 211
3 348 346 347
3 45 49 47
3 350 237 348
3 141 145 143
3 60 51 58
3 205 206 208
3 99 98 96
3 319 318 320
3 136 135 137
3 214 211 212
3 128 126 127
3 224 236 238
3 185 187 188
3 223 333 227
3 157 159 156
3 163 179 180
3 317 157 154
3 62 63 66
3 338 322 340
3 283 280 278
3 342 322 319
3 296 318 299
3 0 1 2
3 86 84 55
3 311 315 313
3 207 208 209
3 62 66 65
3 63 68 66
3 80 81 78
3 100 101 102
3 304 297 302
3 310 301 311
3 173 164 171
3 92 93 89
3 17 308 11
3 139 140 142
3 104 129 106
3 218 219 221
3 64 62 65
3 96 89 94
3 260 257 258
3 10 11 9
3 105 127 108
3 26 24 22
3 275 274 259
3 79 77 76
3 183 181 184
3 45 50 49
3 72 61 58
3 82 55 84
3 111 115 112
3 179 177 178
3 54 55 83
3 7 9 1
3 78 79 76
3 105 106 127
3 217 331 330
3 279 280 281
3 353 352 210
3 188 189 191
3 177 164 175
3 135 2 149
3 143 146 144
3 229 231 228
3 119 116 69
3 82 84 81
3 33 91 37
3 14 8 92
3 197 196 201
3 289 290 293
3 322 321 319
3 40 36 35
3 340 322 342
3 155 151 314
3 218 216 219
3 28 24 26
3 165 177 163
3 177 179 163
3 275 273 274
3 102 85 100
3 248 249 276
3 79 85 102
3 220 332 333
3 239 249 245
3 224 230 232
3 195 196 197
3 129 130 106
3 336 338 340
3 268 261 266
3 261 258 262
3 32 35 34
3 1 0 5
3 233 235 232
3 102 101 104
3 217 332 220
3 80 82 81
3 6 95 94
3 75 76 73
3 326 325 327
3 89 84 88
3 158 160 153
3 242 241 238
3 61 72 63
3 239 236 237
3 215 213 216
3 236 239 238
3 290 296 293
3 332 328 327
3 286 285 282
3 49 60 48
3 38 37 39
3 7 1 5
3 106 105 103
3 28 27 30
3 333 334 335
3 18 90 21
3 71 112 118
3 206 353 210
3 236 234 237
3 259 274 265
3 95 4 133
3 157 156 154
3 8 7 5
3 252 251 248
3 86 90 88
3 302 297 300
3 336 340 341
3 258 265 262
3 351 174 171
3 149 147 141
3 74 112 71
3 318 298 299
3 23 20 21
3 134 4 135
3 15 16 11
3 323 316 321
3 181 178 182
3 77 103 105
3 20 16 18
3 310 312 12
3 138 137 140
3 68 119 69
3 80 75 59
3 266 267 270
3 249 273 275
3 88 92 89
3 296 320 318
3 95 133 132
3 289 292 291
3 160 180 161
3 168 164 166
3 93 6 94
3 257 252 258
3 343 287 345
3 137 141 140
3 134 136 132
3 152 156 153
3 332 334 333
3 44 45 47
3 149 3 147
3 86 88 84
3 281 282 284
3 51 60 49
3 113 116 115
3 106 128 127
3 314 151 3
3 3 9 314
3 314 313 155
3 257 256 252
3 210 212 209
3 134 135 136
3 319 316 318
3 68 71 119
3 186 188 191
3 249 239 350
3 214 212 351
3 44 47 46
3 181 179 178
3 278 350 349
3 126 124 125
3 112 117 118
3 201 199 202
3 187 176 188
3 29 28 30
3 8 10 7
3 176 173 190
3 351 212 352
3 76 77 73
3 283 349 288
3 54 37 55
3 255 254 251
3 150 147 3
3 73 107 109
3 210 352 212
3 317 154 155
3 70 74 71
3 298 316 311
3 306 305 307
3 213 214 331
3 148 152 153
3 15 13 14
3 268 266 269
3 11 16 17
3 122 125 121
3 161 148 153
3 331 329 330
3 180 183 146
3 115 116 117
3 226 229 228
3 95 132 94
3 286 282 283
3 35 36 34
3 121 120 114
3 348 235 346
3 233 346 235
3 169 170 168
3 122 110 107
3 339 325 324
3 219 223 222
3 152 150 151
3 334 339 338
3 40 35 38
3 182 178 187
3 91 87 55
3 200 353 206
3 244 243 238
3 269 266 270
3 87 86 55
3 283 288 286
3 287 343 344
3 129 99 130
3 153 156 158
3 85 84 100
3 198 196 192
3 351 352 174
3 190 189 176
3 345 287 346
3 324 325 323
3 162 164 165
3 39 52 50
3 307 17 16
3 105 108 107
3 44 42 45
3 194 192 195
3 213 211 214
3 287 285 286
3 287 290 289
3 83 82 57
3 207 213 215
3 93 94 89
3 231 345 233
3 97 94 132
3 135 149 137
3 118 116 119
3 108 122 107
3 60 61 48
3 23 22 20
3 281 280 282
3 42 38 39
3 190 173 353
3 258 252 259
3 352 173 174
3 198 190 200
3 109 110 111
3 309 301 310
3 353 173 352
3 166 159 167
3 315 316 317
3 237 234 235
3 182 185 184
3 230 233 232
3 216 220 219
3 39 37 52
3 172 329 331
3 343 336 341
3 160 163 180
3 12 309 310
3 73 74 70
3 224 225 226
3 293 294 292
3 349 348 347
3 345 346 233
3 29 24 28
3 219 220 223
3 146 145 161
3 161 180 146
3 203 206 205
3 308 12 11
3 333 335 227
3 296 299 295
3 198 192 189
3 237 235 348
3 328 329 169
3 138 139 132
3 175 173 176
3 196 198 199
3 111 110 113
3 346 287 347
3 228 231 230
3 188 176 189
3 2 3 149
3 19 18 15
3 199 198 200
3 243 242 238
3 186 193 184
3 174 173 171
3 72 70 63
3 337 343 345
3 13 10 14
3 164 159 166
3 261 262 266
3 171 170 172
3 224 232 234
3 59 75 72
3 259 265 258
3 0 2 4
3 109 111 74
3 28 26 27
3 58 59 72
3 327 328 326
3 38 35 37
3 325 167 323
3 298 311 301
3 213 217 216
3 48 62 64
3 192 196 195
3 161 145 148
3 162 163 160
3 216 217 220
3 10 8 14
3 186 191 193
3 217 213 331
3 43 42 44
3 108 125 122
3 43 44 46
3 43 41 42
3 22 16 20
3 312 314 9
3 91 21 87
3 262 265 267
3 103 104 106
3 58 51 56
3 250 247 248
3 122 114 110
3 32 33 37
3 248 247 245
3 187 175 176
3 53 51 50
3 332 217 330
3 252 248 276
3 93 8 5
3 323 321 324
3 17 305 303
3 101 98 99
3 130 99 131
3 129 101 99
3 191 189 192
3 31 30 32
3 220 333 223
3 260 258 261
3 91 55 37
3 342 320 344
3 225 227 226
3 350 348 349
3 93 5 6
3 283 282 280
3 224 222 225
3 64 46 48
3 32 34 31
3 229 337 231
3 54 83 57
3 202 203 204
3 109 107 110
3 224 228 230
3 273 277 279
3 273 249 277
3 305 302 303
3 307 305 17
3 155 154 151
3 71 118 119
3 335 336 337
3 303 308 17
3 338 339 324
3 22 23 27
3 143 145 146
3 190 198 189
3 50 51 49
3 266 262 267
3 41 38 42
3 170 164 168
3 100 98 101
3 290 320 296
3 245 249 248
3 169 329 170
3 336 343 337
3 65 66 67
3 73 109 74
3 249 350 278
3 150 152 148
3 60 58 61
3 274 273 272
3 245 244 238
3 133 4 134
3 19 14 92
3 279 277 280
3 253 250 251
3 185 188 186
3 207 205 208
3 178 175 187
3 347 287 288
3 167 159 323
3 171 164 170
3 276 249 275
3 141 147 145
3 117 116 118
3 328 169 326
3 270 267 271
3 156 159 158
3 334 336 335
3 336 334 338
3 75 78 76
3 349 347 288
3 224 226 228
3 332 330 328
3 114 120 113
3 207 204 205
3 151 150 3
3 172 351 171
3 202 199 203
3 316 298 318
3 232 235 234
3 8 93 92
3 317 159 157
3 91 23 21
3 206 210 208
3 221 219 222
3 20 18 21
3 142 143 144
3 21 90 87
3 227 229 226
3 285 287 289
3 297 298 300
3 324 321 322
3 299 298 295
3 238 239 245
3 5 0 6
3 328 330 329
3 300 301 309
3 12 312 9
3 16 24 25
3 158 159 164
3 47 49 48
3 334 332 327
3 0 95 6
3 56 53 54
3 95 0 4
3 222 223 225
3 102 104 103
3 343 341 344
3 29 30 31
3 111 112 74
3 214 351 172
3 298 297 295
3 313 315 155
3 25 307 16
3 200 190 353
3 124 121 125
3 158 162 160
3 267 272 271
3 1 9 3
3 140 141 143
3 201 196 199
3 304 305 306
3 10 9 7
3 88 90 19
3 285 289 291
3 304 302 305
3 108 127 125
3 303 309 308
3 90 86 87
3 263 260 261
3 208 210 209
3 265 274 272
3 138 140 139
3 4 2 135
3 337 345 231
3 115 117 112
3 159 316 323
3 156 152 154
3 73 105 107
3 103 79 102
3 48 46 47
3 150 148 147
3 75 80 78
3 326 167 325
3 26 22 27
3 341 340 342
3 254 253 251
3 204 203 205

POINT_DATA 354
COLOR_SCALARS GocadColor 4
0 1 0.48333 1
0 1 0.48333 1
0 1 0.48333 1
0 1 0.48333 1
0 1 0.48333 1
0 1 0.48333 1
0 1 0.48333 1
0 1 0.48333 1
0 1 0.48333 1
0 1 0.48333 1
0 1 0.48333 1
0 1 0.48333 1
0 1 0.48333 1
0 1 0.48333 1
0 1 0.48333 1
0 1 0.48333 1
0 1 0.48333 1
0 1 0.48333 1
0 1 0.48333 1
0 1 0.48333 1
0 1 0.48333 1
0 1 0.48333 1
0 1 0.48333 1
0 1 0.48333 1
0 1 0.48333 1
0 1 0.48333 1
0 1 0.48333 1
0 1 0.48333 1
0 1 0.48333 1
0 1 0.48333 1
0 1 0.48333 1
0 1 0.48333 1
0 1 0.48333 1
0 1 0.48333 1
0 1 0.48333 1
0 1 0.48333 1
0 1 0.48333 1
0 1 0.48333 1
0 1 0.48333 1
0 1 0.48333 1
0 1 0.48333 1
0 1 0.48333 1
0 1 0.48333 1
0 1 0.48333 1
0 1 0.48333 1
0 1 0.48333 1
0 1 0.48333 1
0 1 0.48333 1
0 1 0.48333 1
0 1 0.48333 1
0 1 0.48333 1
0 1 0.48333 1
0 1 0.48333 1
0 1 0.48333 1
0 1 0.48333 1
0 1 0.48333 1
0 1 0.48333 1
0 1 0.48333 1
0 1 0.48333 1
0 1 0.48333 1
0 1 0.48333 1
0 1 0.48333 1
0 1 0.48333 1
0 1 0.48333 1
0 1 0.48333 1
0 1 0.48333 1
0 1 0.48333 1
0 1 0.48333 1
0 1 0.48333 1
0 1 0.48333 1
0 1 0.48333 1
0 1 0.48333 1
0 1 0.48333 1
0 1 0.48333 1
0 1 0.48333 1
0 1 0.48333 1
0 1 0.48333 1
0 1 0.48333 1
0 1 0.48333 1
0 1 0.48333 1
0 1 0.48333 1
0 1 0.48333 1
0 1 0.48333 1
0 1 0.48333 1
0 1 0.48333 1
0 1 0.48333 1
0 1 0.48333 1
0 1 0.48333 1
0 1 0.48333 1
0 1 0.48333 1
0 1 0.48333 1
0 1 0.48333 1
0 1 0.48333 1
0 1 0.48333 1
0 1 0.48333 1
0 1 0.48333 1
0 1 0.48333 1
0 1 0.48333 1
0 1 0.48333 1
0 1 0.48333 1
0 1 0.48333 1
0 1 0.48333 1
0 1 0.48333 1
0 1 0.48333 1
0 1 0.48333 1
0 1 0.48333 1
0 1 0.48333 1
0 1 0.48333 1
0 1 0.48333 1
0 1 0.48333 1
0 1 0.48333 1
0 1 0.48333 1
0 1 0.48333 1
0 1 0.48333 1
0 1 0.48333 1
0 1 0.48333 1
0 1 0.48333 1
0 1 0.48333 1
0 1 0.48333 1
0 1 0.48333 1
0 1 0.48333 1
0 1 0.48333 1
0 1 0.48333 1
0 1 0.48333 1
0 1 0.48333 1
0 1 0.48333 1
0 1 0.48333 1
0 1 0.48333 1
0 1 0.48333 1
0 1 0.48333 1
0 1 0.48333 1
0 1 0.48333 1
0 1 0.48333 1
0 1 0.48333 1
0 1 0.48333 1
0 1 0.48333 1
0 1 0.48333 1
0 1 0.48333 1
0 1 0.48333 1
0 1 0.48333 1
0 1 0.48333 1
0 1 0.48333 1
0 1 0.48333 1
0 1 0.48333 1
0 1 0.48333 1
0 1 0.48333 1
0 1 0.48333 1
0 1 0.48333 1
0 1 0.48333 1
0 1 0.48333 1
0 1 0.48333 1
0 1 0.48333 1
0 1 0.48333 1
0 1 0.48333 1
0 1 0.48333 1
0 1 0.48333 1
0 1 0.48333 1
0 1 0.48333 1
0 1 0.48333 1
0 1 0.48333 1
0 1 0.48333 1
0 1 0.48333 1
0 1 0.48333 1
0 1 0.48333 1
0 1 0.48333 1
0 1 0.48333 1
0 1 0.48333 1
0 1 0.48333 1
0 1 0.48333 1
0 1 0.48333 1
0 1 0.48333 1
0 1 0.48333 1
0 1 0.48333 1
0 1 0.48333 1
0 1 0.48333 1
0 1 0.48333 1
0 1 0.48333 1
0 1 0.48333 1
0 1 0.48333 1
0 1 0.48333 1
0 1 0.48333 1
0 1 0.48333 1
0 1 0.48333 1
0 1 0.48333 1
0 1 0.48333 1
0 1 0.48333 1
0 1 0.48333 1
0 1 0.48333 1
0 1 0.48333 1
0 1 0.48333 1
0 1 0.48333 1
0 1 0.48333 1
0 1 0.48333 1
0 1 0.48333 1
0 1 0.48333 1
0 1 0.48333 1
0 1 0.48333 1
0 1 0.48333 1
0 1 0.48333 1
0 1 0.48333 1
0 1 0.48333 1
0 1 0.48333 1
0 1 0.48333 1
0 1 0.48333 1
0 1 0.48333 1
0 1 0.48333 1
0 1 0.48333 1
0 1 0.48333 1
0 1 0.48333 1
0 1 0.48333 1
0 1 0.48333 1
0 1 0.48333 1
0 1 0.48333 1
0 1 0.48333 1
0 1 0.48333 1
0 1 0.48333 1
0 1 0.48333 1
0 1 0.48333 1
0 1 0.48333 1
0 1 0.48333 1
0 1 0.48333 1
0 1 0.48333 1
0 1 0.48333 1
0 1 0.48333 1
0 1 0.48333 1
0 1 0.48333 1
0 1 0.48333 1
0 1 0.48333 1
0 1 0.48333 1
0 1 0.48333 1
0 1 0.48333 1
0 1 0.48333 1
0 1 0.48333 1
0 1 0.48333 1
0 1 0.48333 1
0 1 0.48333 1
0 1 0.48333 1
0 1 0.48333 1
0 1 0.48333 1
0 1 0.48333 1
0 1 0.48333 1
0 1 0.48333 1
0 1 0.48333 1
0 1 0.48333 1
0 1 0.48333 1
0 1 0.48333 1
0 1 0.48333 1
0 1 0.48333 1
0 1 0.48333 1
0 1 0.48333 1
0 1 0.48333 1
0 1 0.48333 1
0 1 0.48333 1
0 1 0.48333 1
0 1 0.48333 1
0 1 0.48333 1
0 1 0.48333 1
0 1 0.48333 1
0 1 0.48333 1
0 1 0.48333 1
0 1 0.48333 1
0 1 0.48333 1
0 1 0.48333 1
0 1 0.48333 1
0 1 0.48333 1
0 1 0.48333 1
0 1 0.48333 1
0 1 0.48333 1
0 1 0.48333 1
0 1 0.48333 1
0 1 0.48333 1
0 1 0.48333 1
0 1 0.48333 1
0 1 0.48333 1
0 1 0.48333 1
0 1 0.48333 1
0 1 0.48333 1
0 1 0.48333 1
0 1 0.48333 1
0 1 0.48333 1
0 1 0.48333 1
0 1 0.48333 1
0 1 0.48333 1
0 1 0.48333 1
0 1 0.48333 1
0 1 0.48333 1
0 1 0.48333 1
0 1 0.48333 1
0 1 0.48333 1
0 1 0.48333 1
0 1 0.48333 1
0 1 0.48333 1
0 1 0.48333 1
0 1 0.48333 1
0 1 0.48333 1
0 1 0.48333 1
0 1 0.48333 1
0 1 0.48333 1
0 1 0.48333 1
0 1 0.48333 1
0 1 0.48333 1
0 1 0.48333 1
0 1 0.48333 1
0 1 0.48333 1
0 1 0.48333 1
0 1 0.48333 1
0 1 0.48333 1
0 1 0.48333 1
0 1 0.48333 1
0 1 0.48333 1
0 1 0.48333 1
0 1 0.48333 1
0 1 0.48333 1
0 1 0.48333 1
0 1 0.48333 1
0 1 0.48333 1
0 1 0.48333 1
0 1 0.48333 1
0 1 0.48333 1
0 1 0.48333 1
0 1 0.48333 1
0 1 0.48333 1
0 1 0.48333 1
0 1 0.48333 1
0 1 0.48333 1
0 1 0.48333 1
0 1 0.48333 1
0 1 0.48333 1
0 1 0.48333 1
0 1 0.48333 1
0 1 0.48333 1
0 1 0.48333 1
0 1 0.48333 1
0 1 0.48333 1
0 1 0.48333 1
0 1 0.48333 1
0 1 0.48333 1
0 1 0.48333 1
0 1 0.48333 1
0 1 0.48333 1
0 1 0.48333 1
0 1 0.48333 1
0 1 0.48333 1
0 1 0.48333 1
0 1 0.48333 1
0 1 0.48333 1
0 1 0.48333 1
0 1 0.48333 1
0 1 0.48333 1
0 1 0.48333 1
0 1 0.48333 1
0 1 0.48333 1
0 1 0.48333 1
0 1 0.48333 1

