# vtk DataFile Version 3.0
Gocad TSurf to VTK
ASCII
DATASET POLYDATA
POINTS 247 float
21599050.000 4584572.500 -727.500
21599050.000 4584572.500 -727.500
21599100.000 4584660.000 -710.000
21599450.000 4584235.000 -885.000
21599000.000 4584485.000 -745.000
21599175.000 4584272.500 -832.500
21598950.000 4584397.500 -762.500
21599850.000 4584015.000 -1052.500
21600075.000 4584282.500 -941.250
21598900.000 4584310.000 -780.000
21601500.000 4582900.000 -2260.000
21601325.000 4583105.000 -2026.250
21600250.000 4583270.000 -1512.500
21600450.000 4582585.000 -1472.500
21598925.000 4584142.500 -776.250
21599050.000 4583807.500 -768.750
21598950.000 4584142.500 -776.250
21598925.000 4584142.500 -776.250
21598950.000 4583975.000 -772.500
21598975.000 4583807.500 -768.750
21599000.000 4583640.000 -765.000
21599100.000 4583640.000 -765.000
21599050.000 4583472.500 -803.750
21599100.000 4583305.000 -842.500
21599025.000 4583472.500 -803.750
21599100.000 4583640.000 -765.000
21599100.000 4583640.000 -765.000
21599025.000 4583472.500 -803.750
21599100.000 4583472.500 -803.750
21599050.000 4583305.000 -842.500
21599075.000 4583137.500 -881.250
21599100.000 4583137.500 -881.250
21599200.000 4582970.000 -920.000
21599100.000 4582970.000 -920.000
21599200.000 4582780.000 -916.250
21599275.000 4582780.000 -916.250
21600500.000 4581985.000 -1477.500
21599300.000 4582590.000 -912.500
21599400.000 4582400.000 -908.750
21599425.000 4582400.000 -908.750
21599500.000 4582210.000 -905.000
21602000.000 4581130.000 -2315.000
21601950.000 4581925.000 -2207.500
21602375.000 4581020.000 -2492.500
21602700.000 4581792.500 -2661.250
21603700.000 4580340.000 -3265.000
21603650.000 4580427.500 -3205.000
21603150.000 4581012.500 -2833.750
21603725.000 4580385.000 -3240.000
21603750.000 4580430.000 -3215.000
21603775.000 4580475.000 -3190.000
21603800.000 4580520.000 -3165.000
21603650.000 4580735.000 -3165.000
21603800.000 4580780.000 -3305.000
21603875.000 4580607.500 -3270.000
21603950.000 4580695.000 -3375.000
21603950.000 4580825.000 -3445.000
21604025.000 4580782.500 -3480.000
21604100.000 4580870.000 -3585.000
21604200.000 4580960.000 -3655.000
21603300.000 4581605.000 -3062.500
21601650.000 4582670.000 -2260.000
21604300.000 4581050.000 -3725.000
21604400.000 4581140.000 -3795.000
21604500.000 4581230.000 -3865.000
21603375.000 4582202.500 -3002.500
21602425.000 4582937.500 -2210.000
21604375.000 4581415.000 -3711.250
21604125.000 4581785.000 -3403.750
21604550.000 4581315.000 -3822.500
21604600.000 4581400.000 -3780.000
21604650.000 4581485.000 -3737.500
21604700.000 4581570.000 -3695.000
21604600.000 4581697.500 -3583.750
21604650.000 4581955.000 -3320.000
21604750.000 4581600.000 -3695.000
21604800.000 4581630.000 -3695.000
21604850.000 4581660.000 -3695.000
21604900.000 4581690.000 -3695.000
21604925.000 4581725.000 -3618.750
21604950.000 4581760.000 -3542.500
21604825.000 4581892.500 -3355.000
21603900.000 4582827.500 -2070.000
21604975.000 4581795.000 -3466.250
21605000.000 4581830.000 -3390.000
21604825.000 4582025.000 -3082.500
21604300.000 4582610.000 -2160.000
21605050.000 4581855.000 -3230.000
21605100.000 4581880.000 -3070.000
21605150.000 4581905.000 -2910.000
21605200.000 4581930.000 -2750.000
21604175.000 4582800.000 -2003.750
21602375.000 4584217.500 -728.750
21605225.000 4581962.500 -2728.750
21605250.000 4581995.000 -2707.500
21605275.000 4582027.500 -2686.250
21605300.000 4582060.000 -2665.000
21604150.000 4583105.000 -1827.500
21603650.000 4583732.500 -1248.750
21605275.000 4582122.500 -2675.000
21605250.000 4582185.000 -2685.000
21604850.000 4582575.000 -2412.500
21603350.000 4584457.500 -676.250
21605225.000 4582247.500 -2695.000
21605200.000 4582310.000 -2705.000
21603800.000 4584440.000 -752.500
21605000.000 4582747.500 -2307.500
21604400.000 4584060.000 -1115.000
21605250.000 4582312.500 -2660.000
21605300.000 4582315.000 -2615.000
21605350.000 4582317.500 -2570.000
21605400.000 4582320.000 -2525.000
21605350.000 4582777.500 -2197.500
21604600.000 4584082.500 -1140.000
21605450.000 4582332.500 -2476.250
21605500.000 4582345.000 -2427.500
21605250.000 4583692.500 -1542.500
21605550.000 4582357.500 -2378.750
21605600.000 4582370.000 -2330.000
21605200.000 4584150.000 -1215.000
21605000.000 4584127.500 -1190.000
21604775.000 4585215.000 -402.500
21604525.000 4584445.000 -877.500
21604900.000 4585600.000 -165.000
21604600.000 4585555.000 -113.750
21604300.000 4585510.000 -62.500
21603925.000 4585615.000 116.250
21603700.000 4585420.000 40.000
21603600.000 4585630.000 195.000
21603575.000 4585270.000 -67.500
21603425.000 4585495.000 105.000
21603250.000 4585360.000 15.000
21603600.000 4585620.000 210.000
21603300.000 4585640.000 196.250
21603150.000 4585500.000 105.000
21603225.000 4585725.000 223.750
21603000.000 4585660.000 182.500
21602850.000 4585830.000 237.500
21602925.000 4585432.500 63.750
21602700.000 4585680.000 168.750
21603075.000 4585225.000 -75.000
21602700.000 4585370.000 15.000
21603000.000 4584770.000 -400.000
21602525.000 4584737.500 -363.750
21602625.000 4585182.500 -96.250
21602275.000 4584590.000 -437.500
21602200.000 4585325.000 70.000
21601575.000 4585240.000 86.250
21602450.000 4585347.500 42.500
21602225.000 4585595.000 147.500
21602400.000 4585700.000 155.000
21601925.000 4585920.000 261.250
21601900.000 4585660.000 195.000
21602100.000 4586040.000 265.000
21601675.000 4586142.500 247.500
21602475.000 4585935.000 251.250
21601600.000 4585945.000 292.500
21601750.000 4585800.000 257.500
21601450.000 4586055.000 285.000
21601250.000 4586245.000 230.000
21601350.000 4585897.500 306.250
21601125.000 4586062.500 295.000
21601575.000 4585680.000 253.750
21601350.000 4585450.000 180.000
21601875.000 4585385.000 132.500
21602050.000 4585490.000 140.000
21601250.000 4585230.000 40.000
21601125.000 4585667.500 232.500
21601850.000 4584695.000 -313.750
21601400.000 4584630.000 -487.500
21600700.000 4585165.000 -85.000
21602325.000 4583620.000 -1646.250
21601100.000 4583960.000 -1220.000
21600600.000 4584705.000 -655.000
21602250.000 4583502.500 -1706.250
21601300.000 4583715.000 -1422.500
21603000.000 4583022.500 -2220.000
21601750.000 4583450.000 -1667.500
21600975.000 4583515.000 -1558.750
21600800.000 4583720.000 -1325.000
21600325.000 4583867.500 -1188.750
21600425.000 4584417.500 -927.500
21600225.000 4584527.500 -843.750
21600300.000 4584650.000 -795.000
21600000.000 4584652.500 -773.750
21599100.000 4585390.000 -375.000
21599100.000 4585207.500 -458.750
21599275.000 4585425.000 -291.250
21599150.000 4585512.500 -271.250
21600200.000 4585210.000 -140.000
21599625.000 4585495.000 -123.750
21600150.000 4585585.000 50.000
21599400.000 4585637.500 -71.250
21599625.000 4585790.000 71.250
21599300.000 4585555.000 -172.500
21599200.000 4585635.000 -167.500
21599250.000 4585757.500 -63.750
21599025.000 4585592.500 -263.750
21598950.000 4585795.000 -152.500
21598875.000 4585997.500 -41.250
21599300.000 4585880.000 40.000
21598800.000 4586200.000 70.000
21598850.000 4586370.000 80.000
21598675.000 4586490.000 45.000
21599350.000 4586015.000 78.750
21599325.000 4586365.000 163.750
21599500.000 4585895.000 71.250
21599500.000 4586070.000 112.500
21599750.000 4585860.000 112.500
21599950.000 4585765.000 77.500
21600100.000 4586000.000 195.000
21599950.000 4585882.500 136.250
21600000.000 4586000.000 195.000
21599500.000 4586245.000 153.750
21600100.000 4586112.500 195.000
21599725.000 4586427.500 195.000
21600275.000 4586017.500 222.500
21600300.000 4586337.500 195.000
21600500.000 4585640.000 140.000
21600575.000 4585747.500 181.250
21600450.000 4586035.000 250.000
21600800.000 4585745.000 230.000
21600800.000 4586070.000 305.000
21600825.000 4586347.500 212.500
21600400.000 4586450.000 195.000
21600175.000 4586442.500 195.000
21600050.000 4586557.500 173.750
21599950.000 4586435.000 195.000
21599700.000 4586665.000 152.500
21599875.000 4586677.500 138.750
21599350.000 4586905.000 82.500
21599350.000 4586772.500 131.250
21598825.000 4587132.500 26.250
21599000.000 4586880.000 110.000
21598300.000 4587360.000 -30.000
21598425.000 4587070.000 -5.000
21598950.000 4586710.000 100.000
21598425.000 4587070.000 -5.000
21598550.000 4586780.000 20.000
21599700.000 4584655.000 -752.500
21599100.000 4585207.500 -458.750
21599100.000 4585025.000 -542.500
21599100.000 4584842.500 -626.250
21599050.000 4583807.500 -768.750
21599100.000 4583640.000 -765.000
21599000.000 4583640.000 -765.000
21598975.000 4583807.500 -768.750

POLYGONS 392 1568
3 156 160 158
3 124 125 126
3 146 165 149
3 11 177 66
3 190 192 193
3 27 20 26
3 157 156 151
3 52 51 47
3 128 132 126
3 221 167 166
3 200 206 193
3 201 200 199
3 47 53 52
3 221 219 222
3 80 81 83
3 5 6 4
3 225 226 224
3 5 9 6
3 205 204 202
3 61 10 60
3 7 180 11
3 90 86 91
3 227 214 215
3 62 59 60
3 228 215 231
3 116 113 120
3 44 43 42
3 9 14 16
3 212 211 208
3 161 221 222
3 194 187 188
3 102 98 143
3 184 182 8
3 226 227 228
3 98 92 145
3 90 89 85
3 129 127 107
3 164 146 147
3 148 150 141
3 45 46 48
3 233 205 236
3 213 207 204
3 128 126 127
3 179 172 175
3 94 93 91
3 118 117 116
3 7 3 8
3 171 174 172
3 231 233 232
3 2 242 239
3 183 182 184
3 226 228 229
3 195 196 192
3 182 181 8
3 3 2 239
3 148 144 146
3 133 136 135
3 208 193 206
3 29 23 30
3 187 185 188
3 78 77 73
3 11 10 7
3 136 138 139
3 64 10 65
3 113 122 120
3 45 43 46
3 134 138 136
3 207 213 208
3 86 82 92
3 227 225 214
3 41 40 36
3 0 4 1
3 224 226 229
3 10 11 66
3 164 147 163
3 73 72 68
3 65 68 67
3 3 5 4
3 143 144 140
3 159 161 223
3 167 160 163
3 217 216 214
3 132 130 133
3 189 173 183
3 185 197 188
3 212 213 215
3 157 162 156
3 5 3 7
3 239 184 8
3 189 190 191
3 59 44 60
3 235 236 238
3 202 203 236
3 109 108 106
3 42 13 61
3 168 169 166
3 51 46 47
3 99 96 97
3 29 28 23
3 16 15 18
3 115 112 116
3 32 33 31
3 87 84 85
3 162 152 164
3 79 78 74
3 23 22 13
3 240 186 241
3 84 81 82
3 50 49 46
3 56 58 57
3 28 27 26
3 0 2 3
3 208 209 191
3 110 109 106
3 59 58 44
3 123 119 121
3 183 185 187
3 86 90 85
3 18 15 19
3 220 216 217
3 142 140 105
3 172 173 169
3 147 166 163
3 127 125 121
3 55 53 56
3 185 184 186
3 93 90 91
3 102 101 97
3 77 76 73
3 170 166 169
3 175 172 174
3 170 218 166
3 36 13 42
3 105 107 106
3 154 153 151
3 36 32 13
3 178 179 175
3 75 72 73
3 209 211 210
3 234 233 235
3 63 62 60
3 91 86 92
3 13 20 12
3 58 56 44
3 22 20 13
3 229 228 230
3 117 115 116
3 219 220 222
3 101 100 97
3 82 74 65
3 199 200 196
3 179 180 8
3 160 162 163
3 82 176 171
3 43 41 42
3 139 150 155
3 178 180 179
3 186 184 239
3 146 149 148
3 3 239 8
3 112 107 113
3 13 32 23
3 69 64 67
3 200 201 202
3 102 142 105
3 205 213 204
3 214 210 212
3 120 122 121
3 46 43 47
3 96 95 91
3 241 239 242
3 150 149 151
3 105 129 107
3 91 92 98
3 22 25 24
3 224 222 220
3 196 200 193
3 103 100 101
3 216 218 210
3 82 86 85
3 219 218 216
3 34 35 37
3 123 124 126
3 144 143 146
3 194 195 192
3 217 224 220
3 203 238 236
3 91 98 97
3 218 221 166
3 181 183 172
3 206 204 207
3 167 221 161
3 74 73 68
3 130 134 133
3 187 189 183
3 233 231 215
3 170 169 173
3 176 82 65
3 141 150 139
3 152 165 164
3 194 192 187
3 113 107 122
3 227 215 228
3 125 127 126
3 96 91 97
3 108 104 106
3 225 227 226
3 30 23 31
3 216 210 214
3 180 7 8
3 146 143 145
3 160 167 161
3 180 178 11
3 40 38 39
3 123 121 124
3 158 161 159
3 167 163 166
3 190 193 191
3 150 153 155
3 191 209 210
3 14 9 12
3 136 139 137
3 0 1 2
3 24 20 22
3 140 129 105
3 89 88 85
3 214 212 215
3 139 155 137
3 22 28 25
3 10 9 7
3 100 99 97
3 107 127 122
3 206 200 204
3 128 130 132
3 158 160 161
3 193 208 191
3 71 68 72
3 67 64 65
3 199 196 198
3 149 152 151
3 207 208 206
3 233 234 232
3 142 102 143
3 92 82 171
3 145 168 147
3 198 196 195
3 111 110 106
3 187 192 190
3 9 10 12
3 46 49 48
3 234 235 237
3 130 127 129
3 213 205 215
3 71 70 67
3 165 152 149
3 61 13 10
3 183 181 182
3 147 146 145
3 111 107 112
3 148 149 150
3 74 68 65
3 10 64 60
3 152 157 151
3 76 75 73
3 177 174 66
3 131 130 129
3 12 20 15
3 144 148 141
3 34 32 35
3 156 154 151
3 176 174 171
3 85 84 82
3 119 118 116
3 228 231 230
3 15 14 12
3 124 121 125
3 79 74 80
3 162 164 163
3 183 173 172
3 55 56 57
3 39 35 36
3 178 175 177
3 131 134 130
3 231 232 230
3 220 219 216
3 187 190 189
3 171 169 145
3 97 98 102
3 169 168 145
3 88 87 85
3 33 32 34
3 142 143 140
3 10 13 12
3 92 171 145
3 64 63 60
3 112 113 116
3 56 53 47
3 176 66 174
3 122 127 121
3 192 196 193
3 144 141 140
3 106 104 105
3 35 32 36
3 140 131 129
3 168 166 147
3 189 191 218
3 114 111 112
3 32 31 23
3 56 47 44
3 68 71 67
3 233 236 235
3 115 114 112
3 16 18 17
3 136 137 135
3 65 10 66
3 74 78 73
3 143 98 145
3 210 218 191
3 66 176 65
3 104 101 105
3 107 111 106
3 27 28 29
3 44 42 61
3 81 84 83
3 198 195 197
3 11 178 177
3 95 94 91
3 140 141 138
3 204 200 202
3 205 233 215
3 195 194 188
3 101 102 105
3 20 24 26
3 202 201 203
3 134 136 133
3 51 50 46
3 81 74 82
3 211 212 210
3 225 217 214
3 14 15 16
3 45 41 43
3 69 67 70
3 154 158 159
3 170 189 218
3 54 53 55
3 132 133 135
3 0 3 4
3 171 172 169
3 177 175 174
3 223 222 224
3 138 141 139
3 186 239 241
3 185 183 184
3 170 173 189
3 236 205 202
3 103 101 104
3 41 36 42
3 51 52 54
3 181 172 179
3 39 38 35
3 131 140 138
3 152 162 157
3 44 47 43
3 128 127 130
3 33 30 31
3 213 212 208
3 54 52 53
3 156 158 154
3 80 74 81
3 119 120 121
3 60 44 61
3 179 8 181
3 156 162 160
3 161 222 223
3 217 225 224
3 40 39 36
3 164 165 146
3 208 211 209
3 38 37 35
3 22 23 28
3 197 195 188
3 9 16 17
3 119 116 120
3 185 186 240
3 134 131 138
3 237 235 238
3 153 150 151
3 218 219 221
3 9 5 7
3 20 21 15
3 246 243 245
3 243 244 245

POINT_DATA 247
COLOR_SCALARS GocadColor 4
1 0.74902 0.795026 1
1 0.74902 0.795026 1
1 0.74902 0.795026 1
1 0.74902 0.795026 1
1 0.74902 0.795026 1
1 0.74902 0.795026 1
1 0.74902 0.795026 1
1 0.74902 0.795026 1
1 0.74902 0.795026 1
1 0.74902 0.795026 1
1 0.74902 0.795026 1
1 0.74902 0.795026 1
1 0.74902 0.795026 1
1 0.74902 0.795026 1
1 0.74902 0.795026 1
1 0.74902 0.795026 1
1 0.74902 0.795026 1
1 0.74902 0.795026 1
1 0.74902 0.795026 1
1 0.74902 0.795026 1
1 0.74902 0.795026 1
1 0.74902 0.795026 1
1 0.74902 0.795026 1
1 0.74902 0.795026 1
1 0.74902 0.795026 1
1 0.74902 0.795026 1
1 0.74902 0.795026 1
1 0.74902 0.795026 1
1 0.74902 0.795026 1
1 0.74902 0.795026 1
1 0.74902 0.795026 1
1 0.74902 0.795026 1
1 0.74902 0.795026 1
1 0.74902 0.795026 1
1 0.74902 0.795026 1
1 0.74902 0.795026 1
1 0.74902 0.795026 1
1 0.74902 0.795026 1
1 0.74902 0.795026 1
1 0.74902 0.795026 1
1 0.74902 0.795026 1
1 0.74902 0.795026 1
1 0.74902 0.795026 1
1 0.74902 0.795026 1
1 0.74902 0.795026 1
1 0.74902 0.795026 1
1 0.74902 0.795026 1
1 0.74902 0.795026 1
1 0.74902 0.795026 1
1 0.74902 0.795026 1
1 0.74902 0.795026 1
1 0.74902 0.795026 1
1 0.74902 0.795026 1
1 0.74902 0.795026 1
1 0.74902 0.795026 1
1 0.74902 0.795026 1
1 0.74902 0.795026 1
1 0.74902 0.795026 1
1 0.74902 0.795026 1
1 0.74902 0.795026 1
1 0.74902 0.795026 1
1 0.74902 0.795026 1
1 0.74902 0.795026 1
1 0.74902 0.795026 1
1 0.74902 0.795026 1
1 0.74902 0.795026 1
1 0.74902 0.795026 1
1 0.74902 0.795026 1
1 0.74902 0.795026 1
1 0.74902 0.795026 1
1 0.74902 0.795026 1
1 0.74902 0.795026 1
1 0.74902 0.795026 1
1 0.74902 0.795026 1
1 0.74902 0.795026 1
1 0.74902 0.795026 1
1 0.74902 0.795026 1
1 0.74902 0.795026 1
1 0.74902 0.795026 1
1 0.74902 0.795026 1
1 0.74902 0.795026 1
1 0.74902 0.795026 1
1 0.74902 0.795026 1
1 0.74902 0.795026 1
1 0.74902 0.795026 1
1 0.74902 0.795026 1
1 0.74902 0.795026 1
1 0.74902 0.795026 1
1 0.74902 0.795026 1
1 0.74902 0.795026 1
1 0.74902 0.795026 1
1 0.74902 0.795026 1
1 0.74902 0.795026 1
1 0.74902 0.795026 1
1 0.74902 0.795026 1
1 0.74902 0.795026 1
1 0.74902 0.795026 1
1 0.74902 0.795026 1
1 0.74902 0.795026 1
1 0.74902 0.795026 1
1 0.74902 0.795026 1
1 0.74902 0.795026 1
1 0.74902 0.795026 1
1 0.74902 0.795026 1
1 0.74902 0.795026 1
1 0.74902 0.795026 1
1 0.74902 0.795026 1
1 0.74902 0.795026 1
1 0.74902 0.795026 1
1 0.74902 0.795026 1
1 0.74902 0.795026 1
1 0.74902 0.795026 1
1 0.74902 0.795026 1
1 0.74902 0.795026 1
1 0.74902 0.795026 1
1 0.74902 0.795026 1
1 0.74902 0.795026 1
1 0.74902 0.795026 1
1 0.74902 0.795026 1
1 0.74902 0.795026 1
1 0.74902 0.795026 1
1 0.74902 0.795026 1
1 0.74902 0.795026 1
1 0.74902 0.795026 1
1 0.74902 0.795026 1
1 0.74902 0.795026 1
1 0.74902 0.795026 1
1 0.74902 0.795026 1
1 0.74902 0.795026 1
1 0.74902 0.795026 1
1 0.74902 0.795026 1
1 0.74902 0.795026 1
1 0.74902 0.795026 1
1 0.74902 0.795026 1
1 0.74902 0.795026 1
1 0.74902 0.795026 1
1 0.74902 0.795026 1
1 0.74902 0.795026 1
1 0.74902 0.795026 1
1 0.74902 0.795026 1
1 0.74902 0.795026 1
1 0.74902 0.795026 1
1 0.74902 0.795026 1
1 0.74902 0.795026 1
1 0.74902 0.795026 1
1 0.74902 0.795026 1
1 0.74902 0.795026 1
1 0.74902 0.795026 1
1 0.74902 0.795026 1
1 0.74902 0.795026 1
1 0.74902 0.795026 1
1 0.74902 0.795026 1
1 0.74902 0.795026 1
1 0.74902 0.795026 1
1 0.74902 0.795026 1
1 0.74902 0.795026 1
1 0.74902 0.795026 1
1 0.74902 0.795026 1
1 0.74902 0.795026 1
1 0.74902 0.795026 1
1 0.74902 0.795026 1
1 0.74902 0.795026 1
1 0.74902 0.795026 1
1 0.74902 0.795026 1
1 0.74902 0.795026 1
1 0.74902 0.795026 1
1 0.74902 0.795026 1
1 0.74902 0.795026 1
1 0.74902 0.795026 1
1 0.74902 0.795026 1
1 0.74902 0.795026 1
1 0.74902 0.795026 1
1 0.74902 0.795026 1
1 0.74902 0.795026 1
1 0.74902 0.795026 1
1 0.74902 0.795026 1
1 0.74902 0.795026 1
1 0.74902 0.795026 1
1 0.74902 0.795026 1
1 0.74902 0.795026 1
1 0.74902 0.795026 1
1 0.74902 0.795026 1
1 0.74902 0.795026 1
1 0.74902 0.795026 1
1 0.74902 0.795026 1
1 0.74902 0.795026 1
1 0.74902 0.795026 1
1 0.74902 0.795026 1
1 0.74902 0.795026 1
1 0.74902 0.795026 1
1 0.74902 0.795026 1
1 0.74902 0.795026 1
1 0.74902 0.795026 1
1 0.74902 0.795026 1
1 0.74902 0.795026 1
1 0.74902 0.795026 1
1 0.74902 0.795026 1
1 0.74902 0.795026 1
1 0.74902 0.795026 1
1 0.74902 0.795026 1
1 0.74902 0.795026 1
1 0.74902 0.795026 1
1 0.74902 0.795026 1
1 0.74902 0.795026 1
1 0.74902 0.795026 1
1 0.74902 0.795026 1
1 0.74902 0.795026 1
1 0.74902 0.795026 1
1 0.74902 0.795026 1
1 0.74902 0.795026 1
1 0.74902 0.795026 1
1 0.74902 0.795026 1
1 0.74902 0.795026 1
1 0.74902 0.795026 1
1 0.74902 0.795026 1
1 0.74902 0.795026 1
1 0.74902 0.795026 1
1 0.74902 0.795026 1
1 0.74902 0.795026 1
1 0.74902 0.795026 1
1 0.74902 0.795026 1
1 0.74902 0.795026 1
1 0.74902 0.795026 1
1 0.74902 0.795026 1
1 0.74902 0.795026 1
1 0.74902 0.795026 1
1 0.74902 0.795026 1
1 0.74902 0.795026 1
1 0.74902 0.795026 1
1 0.74902 0.795026 1
1 0.74902 0.795026 1
1 0.74902 0.795026 1
1 0.74902 0.795026 1
1 0.74902 0.795026 1
1 0.74902 0.795026 1
1 0.74902 0.795026 1
1 0.74902 0.795026 1
1 0.74902 0.795026 1
1 0.74902 0.795026 1
1 0.74902 0.795026 1
1 0.74902 0.795026 1
1 0.74902 0.795026 1
1 0.74902 0.795026 1
1 0.74902 0.795026 1
1 0.74902 0.795026 1
1 0.74902 0.795026 1
1 0.74902 0.795026 1

