# vtk DataFile Version 3.0
Gocad TSurf to VTK
ASCII
DATASET POLYDATA
POINTS 131 float
21596787.500 4570205.000 213.125
21596637.500 4570253.750 128.750
21596975.000 4570250.000 286.250
21596700.000 4570410.000 110.000
21597012.500 4570035.000 383.125
21596600.000 4570160.000 140.000
21596512.500 4570310.000 75.625
21597000.000 4570000.000 390.000
21596625.000 4570110.000 175.000
21596700.000 4569960.000 280.000
21596587.500 4570127.500 153.750
21596575.000 4570095.000 167.500
21596525.000 4570120.000 147.500
21596400.000 4570250.000 55.000
21596387.500 4570218.750 69.375
21596412.500 4570281.250 51.875
21596425.000 4570312.500 48.750
21596437.500 4570343.750 45.625
21596450.000 4570375.000 42.500
21596587.500 4570350.000 89.375
21596462.500 4570406.250 39.375
21596500.000 4570500.000 30.000
21596487.500 4570468.750 33.125
21596550.000 4570565.000 67.500
21596500.000 4570540.000 41.875
21596700.000 4570453.750 118.750
21596600.000 4570630.000 105.000
21597100.000 4570280.000 335.000
21597087.500 4570330.000 338.750
21597075.000 4570210.000 348.750
21597062.500 4570175.000 355.625
21597087.500 4570245.000 341.875
21597025.000 4570070.000 376.250
21597075.000 4570380.000 342.500
21596887.500 4570578.750 269.375
21597075.000 4570382.500 342.500
21597062.500 4570433.750 346.250
21597050.000 4570485.000 350.000
21597037.500 4570536.250 353.750
21596925.000 4570612.500 301.250
21596650.000 4570695.000 142.500
21597025.000 4570580.000 357.500
21596962.500 4570646.250 333.125
21597025.000 4570587.500 357.500
21597012.500 4570638.750 361.250
21597000.000 4570690.000 365.000
21596975.000 4570712.500 357.500
21596975.000 4570721.250 357.500
21596950.000 4570752.500 350.000
21596925.000 4570777.500 342.500
21596725.000 4570805.000 211.250
21596925.000 4570783.750 342.500
21596900.000 4570815.000 335.000
21596875.000 4570846.250 327.500
21596850.000 4570875.000 320.000
21596850.000 4570877.500 320.000
21596825.000 4570908.750 312.500
21596800.000 4570940.000 305.000
21596600.000 4570950.000 225.000
21596612.500 4570926.250 219.375
21596712.500 4570782.500 195.625
21596587.500 4570933.750 212.500
21596575.000 4570917.500 200.000
21596600.000 4570960.000 210.000
21596587.500 4570942.500 199.375
21596575.000 4570925.000 188.750
21596562.500 4570907.500 178.125
21596550.000 4570890.000 167.500
21596537.500 4570868.750 162.500
21596537.500 4570872.500 156.875
21596525.000 4570855.000 146.250
21596512.500 4570837.500 135.625
21596500.000 4570820.000 125.000
21596500.000 4570780.000 113.125
21596500.000 4570740.000 101.250
21596500.000 4570700.000 89.375
21596500.000 4570660.000 77.500
21596500.000 4570620.000 65.625
21596500.000 4570580.000 53.750
21596475.000 4570437.500 36.250
21596375.000 4570187.500 83.750
21596412.500 4570060.000 158.750
21596550.000 4570030.000 195.000
21596362.500 4570156.250 98.125
21596350.000 4570125.000 112.500
21596337.500 4570093.750 126.875
21596375.000 4570040.000 162.500
21596325.000 4570062.500 141.250
21596312.500 4570031.250 155.625
21596300.000 4570000.000 170.000
21596500.000 4569900.000 250.000
21596425.000 4569865.000 243.750
21596475.000 4569872.500 256.875
21596287.500 4569970.000 176.875
21596275.000 4569940.000 183.750
21596350.000 4569830.000 237.500
21596425.000 4569817.500 270.625
21596262.500 4569910.000 190.625
21596250.000 4569880.000 197.500
21596312.500 4569812.500 234.375
21596375.000 4569762.500 284.375
21596237.500 4569850.000 204.375
21596225.000 4569820.000 211.250
21596237.500 4569777.500 228.125
21596325.000 4569707.500 298.125
21596212.500 4569790.000 218.125
21596200.000 4569760.000 225.000
21596300.000 4569680.000 305.000
21596475.000 4569825.000 292.500
21596399.391 4569600.488 419.297
21596400.430 4569601.281 419.274
21596734.359 4569744.836 412.749
21596487.500 4569862.500 271.250
21596450.000 4569845.000 263.750
21596737.109 4569746.016 412.695
21596739.195 4569746.914 412.654
21596785.445 4569766.793 411.750
21596793.977 4569772.043 411.570
21596775.000 4569810.000 385.000
21596844.172 4569819.223 410.363
21596844.172 4569819.223 410.363
21596847.492 4569822.344 410.284
21596868.078 4569841.688 409.789
21596900.000 4569880.000 405.000
21596950.000 4569940.000 397.500
21596975.000 4569970.000 393.750
21596868.078 4569841.688 409.789
21596868.078 4569841.688 409.789
21596875.000 4569850.000 408.750
21596900.000 4569880.000 405.000
21596868.078 4569841.688 409.789

POLYGONS 173 692
3 111 108 112
3 5 7 8
3 4 7 0
3 84 83 81
3 111 110 108
3 88 87 86
3 98 97 95
3 44 43 41
3 80 12 81
3 57 56 54
3 96 91 113
3 48 47 46
3 77 76 26
3 12 82 81
3 90 89 86
3 100 99 95
3 71 70 68
3 69 67 68
3 90 86 82
3 17 18 6
3 65 64 62
3 54 53 49
3 109 107 108
3 102 101 99
3 59 58 50
3 73 72 40
3 1 5 6
3 24 78 23
3 46 42 39
3 3 1 19
3 13 15 6
3 27 29 2
3 68 59 60
3 9 123 122
3 60 50 46
3 89 88 86
3 25 23 26
3 9 7 123
3 50 49 46
3 89 90 91
3 62 61 59
3 34 25 40
3 46 45 42
3 36 35 33
3 87 85 86
3 72 71 68
3 30 4 2
3 37 34 38
3 66 65 62
3 117 116 90
3 42 44 41
3 103 102 99
3 6 18 19
3 5 13 6
3 68 62 59
3 114 111 112
3 38 34 39
3 0 5 1
3 13 5 12
3 68 67 62
3 93 89 91
3 104 103 99
3 48 49 51
3 5 10 12
3 107 106 103
3 39 42 41
3 3 2 1
3 83 80 81
3 54 49 50
3 16 17 6
3 52 51 49
3 100 96 108
3 15 16 6
3 70 69 68
3 10 5 8
3 96 113 108
3 74 40 26
3 113 112 108
3 40 72 60
3 56 55 54
3 6 19 1
3 117 118 119
3 4 32 7
3 33 35 28
3 22 21 19
3 59 50 60
3 64 61 62
3 53 52 49
3 64 63 61
3 90 92 91
3 58 57 50
3 85 84 81
3 98 95 99
3 50 57 54
3 38 39 41
3 92 113 91
3 45 46 47
3 8 7 9
3 21 24 23
3 94 93 91
3 14 13 12
3 99 100 104
3 61 58 59
3 85 81 86
3 0 1 2
3 25 3 23
3 9 118 82
3 97 94 95
3 4 30 32
3 39 34 40
3 36 33 34
3 60 39 40
3 18 20 19
3 41 43 38
3 7 124 123
3 21 3 19
3 33 28 25
3 101 98 99
3 36 34 37
3 45 44 42
3 82 8 9
3 117 90 118
3 31 29 27
3 28 27 25
3 78 77 23
3 95 96 100
3 3 21 23
3 7 5 0
3 79 22 19
3 118 90 82
3 115 114 112
3 116 115 90
3 105 102 103
3 67 66 62
3 107 103 104
3 74 73 40
3 110 109 108
3 113 92 112
3 27 3 25
3 94 91 95
3 82 11 8
3 80 14 12
3 121 120 9
3 86 81 82
3 76 75 26
3 10 11 12
3 3 27 2
3 20 79 19
3 124 7 125
3 63 58 61
3 106 105 103
3 25 26 40
3 11 10 8
3 53 54 55
3 12 11 82
3 92 90 112
3 104 100 108
3 2 29 30
3 34 33 25
3 120 118 9
3 90 115 112
3 23 77 26
3 91 96 95
3 46 39 60
3 4 0 2
3 49 48 46
3 72 68 60
3 107 104 108
3 75 74 26
3 121 9 122
3 126 127 128
3 126 129 130
3 126 128 129

POINT_DATA 131
COLOR_SCALARS GocadColor 4
0.662745 0.662745 0.662745 1
0.662745 0.662745 0.662745 1
0.662745 0.662745 0.662745 1
0.662745 0.662745 0.662745 1
0.662745 0.662745 0.662745 1
0.662745 0.662745 0.662745 1
0.662745 0.662745 0.662745 1
0.662745 0.662745 0.662745 1
0.662745 0.662745 0.662745 1
0.662745 0.662745 0.662745 1
0.662745 0.662745 0.662745 1
0.662745 0.662745 0.662745 1
0.662745 0.662745 0.662745 1
0.662745 0.662745 0.662745 1
0.662745 0.662745 0.662745 1
0.662745 0.662745 0.662745 1
0.662745 0.662745 0.662745 1
0.662745 0.662745 0.662745 1
0.662745 0.662745 0.662745 1
0.662745 0.662745 0.662745 1
0.662745 0.662745 0.662745 1
0.662745 0.662745 0.662745 1
0.662745 0.662745 0.662745 1
0.662745 0.662745 0.662745 1
0.662745 0.662745 0.662745 1
0.662745 0.662745 0.662745 1
0.662745 0.662745 0.662745 1
0.662745 0.662745 0.662745 1
0.662745 0.662745 0.662745 1
0.662745 0.662745 0.662745 1
0.662745 0.662745 0.662745 1
0.662745 0.662745 0.662745 1
0.662745 0.662745 0.662745 1
0.662745 0.662745 0.662745 1
0.662745 0.662745 0.662745 1
0.662745 0.662745 0.662745 1
0.662745 0.662745 0.662745 1
0.662745 0.662745 0.662745 1
0.662745 0.662745 0.662745 1
0.662745 0.662745 0.662745 1
0.662745 0.662745 0.662745 1
0.662745 0.662745 0.662745 1
0.662745 0.662745 0.662745 1
0.662745 0.662745 0.662745 1
0.662745 0.662745 0.662745 1
0.662745 0.662745 0.662745 1
0.662745 0.662745 0.662745 1
0.662745 0.662745 0.662745 1
0.662745 0.662745 0.662745 1
0.662745 0.662745 0.662745 1
0.662745 0.662745 0.662745 1
0.662745 0.662745 0.662745 1
0.662745 0.662745 0.662745 1
0.662745 0.662745 0.662745 1
0.662745 0.662745 0.662745 1
0.662745 0.662745 0.662745 1
0.662745 0.662745 0.662745 1
0.662745 0.662745 0.662745 1
0.662745 0.662745 0.662745 1
0.662745 0.662745 0.662745 1
0.662745 0.662745 0.662745 1
0.662745 0.662745 0.662745 1
0.662745 0.662745 0.662745 1
0.662745 0.662745 0.662745 1
0.662745 0.662745 0.662745 1
0.662745 0.662745 0.662745 1
0.662745 0.662745 0.662745 1
0.662745 0.662745 0.662745 1
0.662745 0.662745 0.662745 1
0.662745 0.662745 0.662745 1
0.662745 0.662745 0.662745 1
0.662745 0.662745 0.662745 1
0.662745 0.662745 0.662745 1
0.662745 0.662745 0.662745 1
0.662745 0.662745 0.662745 1
0.662745 0.662745 0.662745 1
0.662745 0.662745 0.662745 1
0.662745 0.662745 0.662745 1
0.662745 0.662745 0.662745 1
0.662745 0.662745 0.662745 1
0.662745 0.662745 0.662745 1
0.662745 0.662745 0.662745 1
0.662745 0.662745 0.662745 1
0.662745 0.662745 0.662745 1
0.662745 0.662745 0.662745 1
0.662745 0.662745 0.662745 1
0.662745 0.662745 0.662745 1
0.662745 0.662745 0.662745 1
0.662745 0.662745 0.662745 1
0.662745 0.662745 0.662745 1
0.662745 0.662745 0.662745 1
0.662745 0.662745 0.662745 1
0.662745 0.662745 0.662745 1
0.662745 0.662745 0.662745 1
0.662745 0.662745 0.662745 1
0.662745 0.662745 0.662745 1
0.662745 0.662745 0.662745 1
0.662745 0.662745 0.662745 1
0.662745 0.662745 0.662745 1
0.662745 0.662745 0.662745 1
0.662745 0.662745 0.662745 1
0.662745 0.662745 0.662745 1
0.662745 0.662745 0.662745 1
0.662745 0.662745 0.662745 1
0.662745 0.662745 0.662745 1
0.662745 0.662745 0.662745 1
0.662745 0.662745 0.662745 1
0.662745 0.662745 0.662745 1
0.662745 0.662745 0.662745 1
0.662745 0.662745 0.662745 1
0.662745 0.662745 0.662745 1
0.662745 0.662745 0.662745 1
0.662745 0.662745 0.662745 1
0.662745 0.662745 0.662745 1
0.662745 0.662745 0.662745 1
0.662745 0.662745 0.662745 1
0.662745 0.662745 0.662745 1
0.662745 0.662745 0.662745 1
0.662745 0.662745 0.662745 1
0.662745 0.662745 0.662745 1
0.662745 0.662745 0.662745 1
0.662745 0.662745 0.662745 1
0.662745 0.662745 0.662745 1
0.662745 0.662745 0.662745 1
0.662745 0.662745 0.662745 1
0.662745 0.662745 0.662745 1
0.662745 0.662745 0.662745 1
0.662745 0.662745 0.662745 1
0.662745 0.662745 0.662745 1
0.662745 0.662745 0.662745 1
0.662745 0.662745 0.662745 1

