# vtk DataFile Version 3.0
Gocad TSurf to VTK
ASCII
DATASET POLYDATA
POINTS 165 float
21593150.000 4560500.000 475.000
21593225.000 4560675.000 467.500
21593187.500 4560587.500 471.250
21593150.000 4560500.000 475.000
21593262.500 4560572.500 407.500
21593275.000 4560665.000 425.000
21593237.500 4560387.500 372.500
21593500.000 4560620.000 256.250
21593112.500 4560412.500 478.750
21593225.000 4560295.000 355.000
21593450.000 4560535.000 266.875
21593075.000 4560325.000 482.500
21593200.000 4560110.000 320.000
21593037.500 4560237.500 486.250
21593400.000 4560080.000 170.000
21593475.000 4560346.250 194.375
21593475.000 4560161.250 155.625
21593550.000 4560242.500 141.250
21593625.000 4560323.750 126.875
21593500.000 4560435.000 202.500
21593700.000 4560405.000 112.500
21593775.000 4560486.250 98.125
21593550.000 4560612.500 218.750
21593850.000 4560567.500 83.750
21593925.000 4560648.750 69.375
21593600.000 4560790.000 235.000
21594000.000 4560730.000 55.000
21593975.000 4560905.000 128.750
21594037.500 4560808.750 61.875
21593612.500 4560875.000 271.875
21593950.000 4561080.000 202.500
21593300.000 4560850.000 460.000
21593350.000 4560927.500 468.750
21593262.500 4560762.500 463.750
21593650.000 4561130.000 382.500
21593433.539 4561056.988 483.370
21593433.539 4561056.988 483.370
21593656.414 4561301.398 468.963
21593662.500 4561215.000 419.375
21593590.719 4561229.355 473.209
21593627.984 4561270.223 470.800
21593678.820 4561325.965 467.515
21593900.000 4561430.000 350.000
21593862.500 4561350.000 335.625
21593777.516 4561454.496 460.238
21593804.445 4561497.684 457.895
21593838.508 4561552.293 454.931
21593950.000 4561572.500 373.750
21593962.500 4561495.000 335.625
21593862.078 4561590.086 452.880
21593888.203 4561631.977 450.606
21593975.000 4561643.750 385.625
21593904.359 4561657.879 449.201
21593929.828 4561698.711 446.985
21593958.883 4561745.293 444.456
21594025.000 4561786.250 409.375
21594150.000 4561690.000 292.500
21593988.922 4561793.465 441.842
21594011.594 4561829.813 439.870
21594212.500 4561755.000 278.125
21594031.211 4561850.977 438.617
21594068.641 4561913.242 435.260
21594073.492 4561929.051 434.484
21594075.000 4561928.750 433.125
21594337.500 4561885.000 249.375
21594077.188 4561934.973 434.162
21594106.391 4561976.648 431.849
21594116.984 4561991.777 431.013
21594400.000 4561950.000 235.000
21594375.000 4561802.500 203.750
21594120.359 4561996.605 430.747
21594167.984 4562070.891 426.715
21594170.461 4562074.754 426.506
21594450.000 4562110.000 260.000
21594750.000 4562057.500 113.750
21594192.570 4562109.234 424.635
21594225.000 4562147.500 417.500
21594287.500 4562221.250 403.750
21594192.570 4562109.234 424.635
21594475.000 4562190.000 272.500
21594350.000 4562295.000 390.000
21594725.000 4562146.250 150.625
21594675.000 4562323.750 224.375
21594550.000 4562430.000 310.000
21594925.000 4562280.000 77.500
21594900.000 4562200.000 70.000
21594975.000 4562440.000 92.500
21595000.000 4562520.000 100.000
21595175.000 4562322.500 -31.250
21595112.500 4562248.750 -19.375
21595237.500 4562396.250 -43.125
21595300.000 4562470.000 -55.000
21595287.500 4562565.000 -32.500
21595312.500 4562563.750 -41.250
21595000.000 4562707.500 148.750
21595250.000 4562850.000 35.000
21594650.000 4562675.000 330.000
21594700.000 4562760.000 325.000
21594600.000 4562590.000 335.000
21594650.000 4562675.000 330.000
21594575.000 4562510.000 322.500
21594537.500 4562516.250 348.750
21594475.000 4562442.500 362.500
21594412.500 4562368.750 376.250
21594750.000 4562845.000 320.000
21595000.000 4562895.000 197.500
21594750.000 4562845.000 320.000
21594800.000 4562930.000 315.000
21594850.000 4563015.000 310.000
21595000.000 4562988.750 221.875
21594900.000 4563100.000 305.000
21595125.000 4562963.750 115.625
21595175.000 4563141.250 121.875
21595075.000 4562786.250 109.375
21595237.500 4562945.000 57.500
21595225.000 4563040.000 80.000
21595375.000 4563032.500 27.500
21595200.000 4563230.000 125.000
21595400.000 4563220.000 55.000
21595005.594 4563265.887 289.467
21595006.781 4563268.645 289.238
21595000.000 4563252.867 290.546
21594951.047 4563180.898 298.368
21594925.484 4563143.324 302.452
21594925.484 4563143.324 302.452
21595387.500 4563126.250 41.250
21595362.500 4562938.750 13.750
21595350.000 4562845.000 0.000
21595337.500 4562751.250 -13.750
21595325.000 4562657.500 -27.500
21595050.000 4562175.000 -7.500
21594987.500 4562101.250 4.375
21594925.000 4562027.500 16.250
21594850.000 4562040.000 55.000
21594862.500 4561953.750 28.125
21594825.000 4561960.000 47.500
21594800.000 4561880.000 40.000
21594737.500 4561815.000 48.750
21594675.000 4561750.000 57.500
21594612.500 4561685.000 66.250
21594350.000 4561655.000 172.500
21594550.000 4561620.000 75.000
21594487.500 4561555.000 83.750
21594337.500 4561581.250 156.875
21594425.000 4561490.000 92.500
21594362.500 4561425.000 101.250
21594300.000 4561360.000 110.000
21594262.500 4561281.250 103.125
21593937.500 4561167.500 239.375
21594225.000 4561202.500 96.250
21594187.500 4561123.750 89.375
21594150.000 4561045.000 82.500
21594112.500 4560966.250 75.625
21594075.000 4560887.500 68.750
21593037.500 4560237.500 486.250
21593000.000 4560150.000 490.000
21594951.047 4563180.898 298.368
21594950.000 4563185.000 300.000
21594925.484 4563143.324 302.452
21594950.000 4563185.000 300.000
21595000.000 4563270.000 295.000
21595000.000 4563252.867 290.546
21595005.594 4563265.887 289.467
21595006.781 4563268.645 289.238
21594925.484 4563143.324 302.452

POLYGONS 220 880
3 4 7 5
3 95 114 113
3 86 87 82
3 54 51 55
3 62 59 63
3 72 71 68
3 111 115 112
3 5 33 1
3 155 13 154
3 100 83 82
3 9 8 11
3 84 82 81
3 122 123 109
3 57 54 55
3 25 26 27
3 50 47 51
3 139 69 140
3 130 84 85
3 93 129 92
3 119 117 120
3 23 22 21
3 123 124 110
3 148 43 34
3 92 95 94
3 10 7 6
3 145 144 143
3 70 67 68
3 29 25 27
3 111 114 115
3 113 105 94
3 73 79 77
3 98 96 99
3 98 100 82
3 37 35 32
3 88 86 84
3 90 86 88
3 31 7 25
3 110 108 109
3 155 12 13
3 98 87 96
3 56 140 59
3 5 31 33
3 102 103 83
3 150 148 30
3 28 153 27
3 42 146 48
3 8 9 6
3 121 122 109
3 119 112 117
3 146 145 143
3 105 111 109
3 29 30 34
3 47 48 51
3 90 87 86
3 71 70 68
3 43 42 38
3 54 53 51
3 12 14 9
3 0 4 1
3 95 113 94
3 53 52 51
3 46 42 47
3 40 39 38
3 128 127 95
3 134 133 135
3 64 63 59
3 22 7 19
3 15 19 10
3 132 131 85
3 75 73 76
3 136 134 135
3 67 64 68
3 149 147 148
3 146 42 43
3 50 49 47
3 45 44 42
3 65 62 63
3 26 25 24
3 59 55 56
3 142 140 143
3 69 64 59
3 39 37 38
3 153 152 27
3 129 128 95
3 15 10 9
3 5 7 31
3 60 58 59
3 133 132 85
3 7 4 6
3 104 97 94
3 140 69 59
3 66 65 64
3 99 96 97
3 48 56 51
3 16 17 15
3 62 61 59
3 147 146 43
3 98 101 100
3 105 109 108
3 18 15 17
3 65 63 64
3 136 135 74
3 68 64 69
3 125 118 115
3 85 84 81
3 150 149 148
3 10 6 9
3 116 125 115
3 81 74 85
3 123 110 109
3 132 133 134
3 42 48 47
3 73 72 68
3 154 13 11
3 148 147 43
3 92 129 95
3 75 72 73
3 32 35 31
3 49 46 47
3 7 22 25
3 20 19 18
3 46 45 42
3 89 84 130
3 74 133 85
3 81 82 79
3 0 8 6
3 26 28 27
3 44 41 42
3 13 12 11
3 101 102 83
3 27 30 29
3 83 103 79
3 74 73 68
3 135 133 74
3 14 16 15
3 116 115 114
3 138 137 69
3 68 136 74
3 126 116 114
3 61 60 59
3 14 15 9
3 130 85 131
3 3 8 0
3 21 22 19
3 76 73 77
3 32 31 29
3 117 112 115
3 96 87 94
3 0 6 4
3 137 68 69
3 38 32 34
3 56 55 51
3 106 97 104
3 67 66 64
3 91 87 90
3 58 57 55
3 142 143 144
3 23 24 22
3 7 10 19
3 127 126 95
3 151 150 30
3 3 0 2
3 108 104 105
3 119 121 112
3 32 29 34
3 89 88 84
3 18 19 15
3 41 40 38
3 27 152 30
3 104 108 107
3 143 140 56
3 141 139 140
3 38 37 32
3 79 80 77
3 87 91 92
3 0 1 2
3 59 58 55
3 97 96 94
3 20 21 19
3 41 38 42
3 126 114 95
3 143 56 48
3 141 140 142
3 48 146 143
3 30 148 34
3 52 50 51
3 35 36 31
3 91 93 92
3 87 98 82
3 84 86 82
3 138 69 139
3 104 94 105
3 109 111 112
3 152 151 30
3 82 83 79
3 24 25 22
3 118 117 115
3 79 73 81
3 121 109 112
3 106 104 107
3 31 25 29
3 81 73 74
3 75 76 78
3 136 68 137
3 43 38 34
3 113 111 105
3 80 79 103
3 114 111 113
3 87 92 94
3 101 83 100
3 4 5 1
3 9 11 12
3 163 160 162
3 160 161 162
3 156 157 158
3 157 160 159
3 160 156 161
3 158 159 164
3 160 157 156
3 157 159 158

POINT_DATA 165
COLOR_SCALARS GocadColor 4
0.662745 0.662745 0.662745 1
0.662745 0.662745 0.662745 1
0.662745 0.662745 0.662745 1
0.662745 0.662745 0.662745 1
0.662745 0.662745 0.662745 1
0.662745 0.662745 0.662745 1
0.662745 0.662745 0.662745 1
0.662745 0.662745 0.662745 1
0.662745 0.662745 0.662745 1
0.662745 0.662745 0.662745 1
0.662745 0.662745 0.662745 1
0.662745 0.662745 0.662745 1
0.662745 0.662745 0.662745 1
0.662745 0.662745 0.662745 1
0.662745 0.662745 0.662745 1
0.662745 0.662745 0.662745 1
0.662745 0.662745 0.662745 1
0.662745 0.662745 0.662745 1
0.662745 0.662745 0.662745 1
0.662745 0.662745 0.662745 1
0.662745 0.662745 0.662745 1
0.662745 0.662745 0.662745 1
0.662745 0.662745 0.662745 1
0.662745 0.662745 0.662745 1
0.662745 0.662745 0.662745 1
0.662745 0.662745 0.662745 1
0.662745 0.662745 0.662745 1
0.662745 0.662745 0.662745 1
0.662745 0.662745 0.662745 1
0.662745 0.662745 0.662745 1
0.662745 0.662745 0.662745 1
0.662745 0.662745 0.662745 1
0.662745 0.662745 0.662745 1
0.662745 0.662745 0.662745 1
0.662745 0.662745 0.662745 1
0.662745 0.662745 0.662745 1
0.662745 0.662745 0.662745 1
0.662745 0.662745 0.662745 1
0.662745 0.662745 0.662745 1
0.662745 0.662745 0.662745 1
0.662745 0.662745 0.662745 1
0.662745 0.662745 0.662745 1
0.662745 0.662745 0.662745 1
0.662745 0.662745 0.662745 1
0.662745 0.662745 0.662745 1
0.662745 0.662745 0.662745 1
0.662745 0.662745 0.662745 1
0.662745 0.662745 0.662745 1
0.662745 0.662745 0.662745 1
0.662745 0.662745 0.662745 1
0.662745 0.662745 0.662745 1
0.662745 0.662745 0.662745 1
0.662745 0.662745 0.662745 1
0.662745 0.662745 0.662745 1
0.662745 0.662745 0.662745 1
0.662745 0.662745 0.662745 1
0.662745 0.662745 0.662745 1
0.662745 0.662745 0.662745 1
0.662745 0.662745 0.662745 1
0.662745 0.662745 0.662745 1
0.662745 0.662745 0.662745 1
0.662745 0.662745 0.662745 1
0.662745 0.662745 0.662745 1
0.662745 0.662745 0.662745 1
0.662745 0.662745 0.662745 1
0.662745 0.662745 0.662745 1
0.662745 0.662745 0.662745 1
0.662745 0.662745 0.662745 1
0.662745 0.662745 0.662745 1
0.662745 0.662745 0.662745 1
0.662745 0.662745 0.662745 1
0.662745 0.662745 0.662745 1
0.662745 0.662745 0.662745 1
0.662745 0.662745 0.662745 1
0.662745 0.662745 0.662745 1
0.662745 0.662745 0.662745 1
0.662745 0.662745 0.662745 1
0.662745 0.662745 0.662745 1
0.662745 0.662745 0.662745 1
0.662745 0.662745 0.662745 1
0.662745 0.662745 0.662745 1
0.662745 0.662745 0.662745 1
0.662745 0.662745 0.662745 1
0.662745 0.662745 0.662745 1
0.662745 0.662745 0.662745 1
0.662745 0.662745 0.662745 1
0.662745 0.662745 0.662745 1
0.662745 0.662745 0.662745 1
0.662745 0.662745 0.662745 1
0.662745 0.662745 0.662745 1
0.662745 0.662745 0.662745 1
0.662745 0.662745 0.662745 1
0.662745 0.662745 0.662745 1
0.662745 0.662745 0.662745 1
0.662745 0.662745 0.662745 1
0.662745 0.662745 0.662745 1
0.662745 0.662745 0.662745 1
0.662745 0.662745 0.662745 1
0.662745 0.662745 0.662745 1
0.662745 0.662745 0.662745 1
0.662745 0.662745 0.662745 1
0.662745 0.662745 0.662745 1
0.662745 0.662745 0.662745 1
0.662745 0.662745 0.662745 1
0.662745 0.662745 0.662745 1
0.662745 0.662745 0.662745 1
0.662745 0.662745 0.662745 1
0.662745 0.662745 0.662745 1
0.662745 0.662745 0.662745 1
0.662745 0.662745 0.662745 1
0.662745 0.662745 0.662745 1
0.662745 0.662745 0.662745 1
0.662745 0.662745 0.662745 1
0.662745 0.662745 0.662745 1
0.662745 0.662745 0.662745 1
0.662745 0.662745 0.662745 1
0.662745 0.662745 0.662745 1
0.662745 0.662745 0.662745 1
0.662745 0.662745 0.662745 1
0.662745 0.662745 0.662745 1
0.662745 0.662745 0.662745 1
0.662745 0.662745 0.662745 1
0.662745 0.662745 0.662745 1
0.662745 0.662745 0.662745 1
0.662745 0.662745 0.662745 1
0.662745 0.662745 0.662745 1
0.662745 0.662745 0.662745 1
0.662745 0.662745 0.662745 1
0.662745 0.662745 0.662745 1
0.662745 0.662745 0.662745 1
0.662745 0.662745 0.662745 1
0.662745 0.662745 0.662745 1
0.662745 0.662745 0.662745 1
0.662745 0.662745 0.662745 1
0.662745 0.662745 0.662745 1
0.662745 0.662745 0.662745 1
0.662745 0.662745 0.662745 1
0.662745 0.662745 0.662745 1
0.662745 0.662745 0.662745 1
0.662745 0.662745 0.662745 1
0.662745 0.662745 0.662745 1
0.662745 0.662745 0.662745 1
0.662745 0.662745 0.662745 1
0.662745 0.662745 0.662745 1
0.662745 0.662745 0.662745 1
0.662745 0.662745 0.662745 1
0.662745 0.662745 0.662745 1
0.662745 0.662745 0.662745 1
0.662745 0.662745 0.662745 1
0.662745 0.662745 0.662745 1
0.662745 0.662745 0.662745 1
0.662745 0.662745 0.662745 1
0.662745 0.662745 0.662745 1
0.662745 0.662745 0.662745 1
0.662745 0.662745 0.662745 1
0.662745 0.662745 0.662745 1
0.662745 0.662745 0.662745 1
0.662745 0.662745 0.662745 1
0.662745 0.662745 0.662745 1
0.662745 0.662745 0.662745 1
0.662745 0.662745 0.662745 1
0.662745 0.662745 0.662745 1
0.662745 0.662745 0.662745 1
0.662745 0.662745 0.662745 1
0.662745 0.662745 0.662745 1

