# vtk DataFile Version 3.0
Gocad TSurf to VTK
ASCII
DATASET POLYDATA
POINTS 221 float
21549800.000 4562500.000 15.000
21549800.000 4562510.000 15.000
21549350.000 4562120.000 -8.750
21549600.000 4562620.000 -80.000
21549350.000 4562112.500 -8.750
21550475.000 4562950.000 5.000
21550475.000 4562957.500 5.000
21551150.000 4563400.000 -5.000
21550475.000 4562960.000 5.000
21551150.000 4563405.000 -5.000
21550325.000 4563042.500 -66.250
21551050.000 4563465.000 -52.500
21550325.000 4563110.000 -72.500
21550325.000 4563185.000 -72.500
21551050.000 4563600.000 -65.000
21550325.000 4563247.500 -66.250
21551050.000 4563750.000 -65.000
21550025.000 4563397.500 -107.500
21550850.000 4563975.000 -80.000
21549200.000 4562820.000 -135.000
21549200.000 4562202.500 -80.000
21549875.000 4563502.500 -107.500
21550750.000 4564045.000 -80.000
21549000.000 4562960.000 -135.000
21548750.000 4562460.000 -121.250
21549725.000 4563570.000 -77.500
21550650.000 4564090.000 -60.000
21548800.000 4563050.000 -95.000
21548600.000 4562527.500 -91.250
21548525.000 4562570.000 -105.000
21548400.000 4562005.000 -87.500
21548250.000 4562090.000 -115.000
21548500.000 4561960.000 -107.500
21548200.000 4561482.500 -83.750
21548900.000 4562355.000 -121.250
21548600.000 4561890.000 -107.500
21548900.000 4562352.500 -121.250
21548800.000 4561785.000 -80.000
21548600.000 4561885.000 -107.500
21548900.000 4561730.000 -32.500
21548450.000 4561340.000 -56.250
21548900.000 4561725.000 -32.500
21548450.000 4561337.500 -56.250
21548000.000 4560950.000 -80.000
21548400.000 4561367.500 -80.000
21548300.000 4561417.500 -93.750
21548000.000 4560960.000 -80.000
21548300.000 4561425.000 -93.750
21547375.000 4560647.500 -70.000
21547700.000 4561130.000 -135.000
21547375.000 4560640.000 -70.000
21546750.000 4560335.000 -60.000
21547150.000 4560775.000 -111.250
21546750.000 4560330.000 -60.000
21546125.000 4560022.500 -50.000
21546600.000 4560420.000 -87.500
21546125.000 4560020.000 -50.000
21545500.000 4559710.000 -40.000
21546050.000 4560065.000 -63.750
21545925.000 4560145.000 -67.500
21546350.000 4560580.000 -95.000
21545800.000 4560235.000 -63.750
21546100.000 4560760.000 -87.500
21545800.000 4560235.000 -63.750
21545575.000 4560347.500 -105.000
21545950.000 4560835.000 -115.000
21545200.000 4559860.000 -95.000
21545500.000 4560402.500 -91.250
21545375.000 4559612.500 -36.250
21545150.000 4559725.000 -77.500
21545375.000 4559612.500 -36.250
21545250.000 4559515.000 -32.500
21545250.000 4559515.000 -32.500
21545125.000 4559417.500 -28.750
21545100.000 4559590.000 -60.000
21545125.000 4559417.500 -28.750
21545000.000 4559320.000 -25.000
21545050.000 4559455.000 -42.500
21545000.000 4559330.000 -25.000
21545050.000 4559462.500 -42.500
21544100.000 4559247.500 -7.500
21544600.000 4559490.000 -105.000
21544100.000 4559240.000 -7.500
21543200.000 4559165.000 10.000
21543800.000 4559367.500 -67.500
21543200.000 4559160.000 10.000
21542300.000 4559082.500 27.500
21543000.000 4559245.000 -30.000
21542300.000 4559080.000 27.500
21541400.000 4559000.000 45.000
21542200.000 4559122.500 7.500
21542025.000 4559182.500 0.000
21542650.000 4559365.000 -45.000
21543275.000 4559547.500 -90.000
21542300.000 4559485.000 -37.500
21542750.000 4559727.500 -78.750
21541850.000 4559242.500 3.750
21542000.000 4559595.000 -10.000
21541700.000 4559297.500 17.500
21541675.000 4559312.500 27.500
21541950.000 4559625.000 10.000
21542225.000 4559937.500 -7.500
21541675.000 4559312.500 27.500
21541950.000 4559625.000 10.000
21541675.000 4559327.500 16.250
21542225.000 4559937.500 -7.500
21541950.000 4559635.000 2.500
21542500.000 4560250.000 -25.000
21542225.000 4559942.500 -11.250
21542300.000 4559892.500 -37.500
21542600.000 4560190.000 -65.000
21542750.000 4560320.000 -28.750
21543200.000 4559970.000 -120.000
21542825.000 4560275.000 -58.750
21543900.000 4559730.000 -135.000
21543375.000 4560062.500 -110.000
21544050.000 4559825.000 -127.500
21544575.000 4559645.000 -105.000
21543900.000 4559882.500 -121.250
21543900.000 4560035.000 -107.500
21543550.000 4560155.000 -100.000
21543350.000 4560250.000 -80.000
21543275.000 4560110.000 -100.000
21543425.000 4560390.000 -60.000
21543275.000 4560445.000 -46.250
21543725.000 4560247.500 -90.000
21543500.000 4560530.000 -40.000
21543900.000 4560340.000 -80.000
21543900.000 4560187.500 -93.750
21544225.000 4560905.000 -50.000
21544525.000 4560762.500 -80.000
21544500.000 4560110.000 -105.000
21544950.000 4561280.000 -60.000
21545150.000 4561185.000 -80.000
21544975.000 4560590.000 -98.750
21545675.000 4561655.000 -70.000
21545775.000 4561607.500 -80.000
21545450.000 4561070.000 -92.500
21546400.000 4562030.000 -80.000
21545925.000 4561550.000 -86.250
21546100.000 4561487.500 -83.750
21545800.000 4560945.000 -87.500
21546700.000 4561810.000 -135.000
21546325.000 4561322.500 -125.000
21547000.000 4562285.000 -83.750
21547225.000 4562120.000 -125.000
21547600.000 4562540.000 -87.500
21547200.000 4561450.000 -150.000
21547600.000 4561850.000 -136.250
21546775.000 4561015.000 -122.500
21546400.000 4561285.000 -111.250
21547975.000 4561610.000 -125.000
21548000.000 4562250.000 -122.500
21548250.000 4561460.000 -93.750
21548400.000 4562650.000 -108.750
21548275.000 4562740.000 -105.000
21547750.000 4562430.000 -115.000
21548200.000 4562795.000 -91.250
21546100.000 4560760.000 -87.500
21546400.000 4561285.000 -111.250
21545050.000 4559767.500 -97.500
21544525.000 4559955.000 -105.000
21545150.000 4559727.500 -77.500
21545100.000 4559595.000 -60.000
21544900.000 4559675.000 -100.000
21544750.000 4559582.500 -102.500
21544550.000 4559800.000 -105.000
21544200.000 4559920.000 -120.000
21544350.000 4560015.000 -112.500
21543250.000 4560460.000 -36.250
21543050.000 4560360.000 -52.500
21543000.000 4560390.000 -32.500
21542225.000 4559950.000 -11.250
21541950.000 4559650.000 2.500
21541675.000 4559350.000 16.250
21541400.000 4559050.000 30.000
21541400.000 4559020.000 30.000
21551575.000 4564610.000 -42.500
21551625.000 4564587.500 -52.500
21552500.000 4565130.000 -25.000
21551675.000 4564552.500 -52.500
21551775.000 4564502.500 -38.750
21551050.000 4563875.000 -52.500
21552500.000 4564880.000 -50.000
21551775.000 4564315.000 -57.500
21552750.000 4565082.500 -36.250
21552750.000 4564857.500 -36.250
21552750.000 4565270.000 -17.500
21553000.000 4565285.000 -22.500
21552750.000 4565270.000 -17.500
21553000.000 4565410.000 -10.000
21552750.000 4565282.500 -21.250
21553000.000 4565410.000 -10.000
21552750.000 4565290.000 -17.500
21553000.000 4565435.000 -17.500
21553000.000 4565450.000 -10.000
21553250.000 4565587.500 -13.750
21553250.000 4565610.000 -2.500
21553250.000 4565550.000 -2.500
21553500.000 4565690.000 5.000
21553500.000 4565740.000 -10.000
21553250.000 4565550.000 -2.500
21553250.000 4565487.500 -8.750
21553250.000 4565412.500 -8.750
21553000.000 4565135.000 -22.500
21553250.000 4565345.000 -2.500
21553250.000 4565342.500 -2.500
21553000.000 4565000.000 -10.000
21553000.000 4564995.000 -10.000
21552750.000 4564655.000 -17.500
21552750.000 4564647.500 -17.500
21552500.000 4564580.000 -50.000
21552500.000 4564310.000 -25.000
21551775.000 4564090.000 -57.500
21551775.000 4563887.500 -38.750
21551825.000 4563860.000 -15.000
21551150.000 4563410.000 -5.000
21551825.000 4563852.500 -15.000
21552500.000 4564300.000 -25.000
21551825.000 4563850.000 -15.000
21553500.000 4565770.000 5.000

POLYGONS 388 1552
3 51 52 55
3 87 93 92
3 202 190 188
3 59 57 58
3 211 212 209
3 142 145 144
3 158 62 150
3 196 197 195
3 124 126 169
3 116 117 167
3 98 99 89
3 65 67 64
3 203 188 204
3 78 77 79
3 80 81 84
3 115 121 122
3 209 210 208
3 72 70 71
3 120 123 121
3 203 204 205
3 154 27 155
3 37 38 44
3 51 50 48
3 153 32 33
3 158 63 62
3 107 110 111
3 97 109 101
3 164 163 160
3 26 25 21
3 216 217 215
3 16 184 182
3 204 185 186
3 18 182 180
3 35 36 34
3 167 119 116
3 72 71 73
3 152 31 154
3 163 74 69
3 32 30 33
3 63 57 61
3 188 185 204
3 70 68 71
3 207 209 208
3 139 141 140
3 79 163 164
3 92 95 94
3 215 217 218
3 120 121 115
3 214 215 212
3 203 205 199
3 39 20 37
3 100 103 102
3 164 166 165
3 99 102 89
3 78 79 165
3 25 27 23
3 49 151 148
3 80 76 78
3 81 78 165
3 13 3 12
3 71 69 74
3 167 166 168
3 123 126 124
3 192 190 201
3 147 49 148
3 188 187 185
3 14 11 214
3 17 3 15
3 36 19 34
3 101 103 100
3 142 150 149
3 216 9 217
3 52 49 147
3 151 30 31
3 122 121 170
3 61 57 59
3 52 147 149
3 1 3 2
3 64 57 63
3 138 139 140
3 149 150 60
3 67 66 64
3 138 142 144
3 2 20 39
3 156 155 157
3 54 53 51
3 81 165 117
3 194 196 195
3 108 172 173
3 142 147 145
3 217 219 218
3 130 131 134
3 190 187 188
3 96 98 89
3 46 153 33
3 65 63 158
3 191 192 194
3 103 106 104
3 142 159 150
3 168 127 128
3 86 90 89
3 151 31 152
3 160 161 164
3 101 105 103
3 127 126 125
3 156 152 155
3 86 83 87
3 76 75 73
3 14 214 213
3 163 69 162
3 91 94 96
3 170 121 124
3 91 96 89
3 213 211 184
3 22 21 17
3 132 133 135
3 211 209 186
3 31 30 28
3 204 186 207
3 4 0 2
3 98 97 100
3 177 26 22
3 129 127 130
3 41 39 40
3 65 158 143
3 7 6 5
3 189 187 190
3 80 78 81
3 56 54 57
3 18 17 15
3 29 27 154
3 113 170 171
3 155 27 157
3 57 66 68
3 43 40 44
3 218 212 215
3 85 82 83
3 112 114 115
3 50 43 48
3 2 3 20
3 142 143 159
3 47 38 35
3 60 59 58
3 66 57 64
3 118 119 120
3 37 36 38
3 93 112 95
3 171 170 169
3 149 147 142
3 40 37 44
3 167 128 119
3 148 151 152
3 58 57 54
3 105 107 108
3 90 91 89
3 47 35 153
3 28 27 29
3 41 4 39
3 97 101 100
3 13 12 14
3 148 152 156
3 43 42 40
3 82 76 80
3 91 92 94
3 115 118 120
3 135 133 136
3 170 124 169
3 69 66 162
3 201 190 202
3 68 66 69
3 191 179 189
3 165 79 164
3 46 45 47
3 48 46 49
3 112 115 122
3 130 134 133
3 206 207 208
3 15 182 18
3 205 204 207
3 55 58 54
3 95 110 109
3 31 29 154
3 152 154 155
3 84 114 93
3 9 6 7
3 102 104 176
3 214 216 215
3 21 23 19
3 192 201 198
3 47 45 38
3 105 106 103
3 199 200 196
3 183 179 181
3 81 117 116
3 96 97 98
3 24 23 28
3 92 93 95
3 79 77 74
3 26 21 22
3 136 137 139
3 125 123 120
3 200 220 197
3 8 6 9
3 163 162 160
3 3 1 10
3 201 202 199
3 11 10 8
3 48 49 52
3 104 175 176
3 160 131 161
3 65 141 67
3 16 182 15
3 17 19 3
3 98 100 99
3 194 195 193
3 194 192 198
3 131 127 168
3 146 156 157
3 88 85 86
3 75 72 73
3 144 145 146
3 177 22 178
3 143 140 141
3 35 38 36
3 131 66 134
3 42 41 40
3 49 46 33
3 132 130 133
3 10 1 8
3 83 84 87
3 73 74 77
3 8 1 6
3 48 43 46
3 116 119 118
3 143 158 159
3 95 112 110
3 198 196 194
3 55 60 58
3 212 210 209
3 138 135 136
3 211 183 184
3 22 17 18
3 207 186 209
3 198 199 196
3 108 173 106
3 104 174 175
3 105 108 106
3 147 148 145
3 83 80 84
3 184 181 182
3 3 19 20
3 196 200 197
3 90 92 91
3 134 67 137
3 114 118 115
3 62 61 59
3 81 114 84
3 161 131 168
3 145 156 146
3 213 184 16
3 34 24 32
3 106 173 174
3 25 23 21
3 205 207 206
3 193 191 194
3 111 113 171
3 88 86 89
3 137 141 139
3 187 179 185
3 159 158 150
3 162 66 160
3 185 179 183
3 137 67 141
3 96 94 97
3 198 201 199
3 191 189 192
3 35 32 153
3 34 19 24
3 55 52 149
3 49 33 151
3 103 104 102
3 63 61 62
3 126 127 129
3 150 62 60
3 217 9 219
3 93 114 112
3 68 69 71
3 128 127 125
3 44 38 45
3 86 85 83
3 4 2 39
3 0 1 2
3 109 110 107
3 193 179 191
3 86 87 90
3 56 53 54
3 35 34 32
3 166 161 168
3 165 166 117
3 149 60 55
3 54 51 55
3 71 74 73
3 39 37 40
3 120 119 125
3 5 1 0
3 53 50 51
3 129 130 132
3 110 112 113
3 87 84 93
3 125 126 123
3 60 62 59
3 145 148 156
3 119 128 125
3 6 1 5
3 21 19 17
3 12 3 10
3 121 123 124
3 70 57 68
3 181 179 180
3 219 9 7
3 100 102 99
3 94 95 109
3 18 180 178
3 110 113 111
3 168 128 167
3 16 14 213
3 205 206 199
3 138 136 139
3 24 28 30
3 114 116 118
3 142 140 143
3 31 28 29
3 20 36 37
3 46 43 45
3 133 137 136
3 189 190 192
3 102 176 89
3 182 181 180
3 15 13 16
3 106 174 104
3 214 11 216
3 11 8 216
3 94 109 97
3 143 141 65
3 184 183 181
3 213 214 212
3 12 11 14
3 133 134 137
3 12 10 11
3 109 107 101
3 117 166 167
3 142 138 140
3 114 81 116
3 83 82 80
3 134 66 67
3 66 131 160
3 90 87 92
3 23 27 28
3 20 19 36
3 202 203 199
3 13 14 16
3 178 22 18
3 112 122 113
3 79 74 163
3 183 211 186
3 46 47 153
3 108 107 172
3 15 3 13
3 51 48 52
3 127 131 130
3 76 73 77
3 164 161 166
3 202 188 203
3 177 178 179
3 101 107 105
3 8 9 216
3 185 183 186
3 189 179 187
3 19 23 24
3 180 179 178
3 32 24 30
3 212 218 210
3 64 63 65
3 78 76 77
3 151 33 30
3 113 122 170
3 43 44 45
3 212 211 213

POINT_DATA 221
COLOR_SCALARS GocadColor 4
0.313726 0.623529 0.411765 1
0.313726 0.623529 0.411765 1
0.313726 0.623529 0.411765 1
0.313726 0.623529 0.411765 1
0.313726 0.623529 0.411765 1
0.313726 0.623529 0.411765 1
0.313726 0.623529 0.411765 1
0.313726 0.623529 0.411765 1
0.313726 0.623529 0.411765 1
0.313726 0.623529 0.411765 1
0.313726 0.623529 0.411765 1
0.313726 0.623529 0.411765 1
0.313726 0.623529 0.411765 1
0.313726 0.623529 0.411765 1
0.313726 0.623529 0.411765 1
0.313726 0.623529 0.411765 1
0.313726 0.623529 0.411765 1
0.313726 0.623529 0.411765 1
0.313726 0.623529 0.411765 1
0.313726 0.623529 0.411765 1
0.313726 0.623529 0.411765 1
0.313726 0.623529 0.411765 1
0.313726 0.623529 0.411765 1
0.313726 0.623529 0.411765 1
0.313726 0.623529 0.411765 1
0.313726 0.623529 0.411765 1
0.313726 0.623529 0.411765 1
0.313726 0.623529 0.411765 1
0.313726 0.623529 0.411765 1
0.313726 0.623529 0.411765 1
0.313726 0.623529 0.411765 1
0.313726 0.623529 0.411765 1
0.313726 0.623529 0.411765 1
0.313726 0.623529 0.411765 1
0.313726 0.623529 0.411765 1
0.313726 0.623529 0.411765 1
0.313726 0.623529 0.411765 1
0.313726 0.623529 0.411765 1
0.313726 0.623529 0.411765 1
0.313726 0.623529 0.411765 1
0.313726 0.623529 0.411765 1
0.313726 0.623529 0.411765 1
0.313726 0.623529 0.411765 1
0.313726 0.623529 0.411765 1
0.313726 0.623529 0.411765 1
0.313726 0.623529 0.411765 1
0.313726 0.623529 0.411765 1
0.313726 0.623529 0.411765 1
0.313726 0.623529 0.411765 1
0.313726 0.623529 0.411765 1
0.313726 0.623529 0.411765 1
0.313726 0.623529 0.411765 1
0.313726 0.623529 0.411765 1
0.313726 0.623529 0.411765 1
0.313726 0.623529 0.411765 1
0.313726 0.623529 0.411765 1
0.313726 0.623529 0.411765 1
0.313726 0.623529 0.411765 1
0.313726 0.623529 0.411765 1
0.313726 0.623529 0.411765 1
0.313726 0.623529 0.411765 1
0.313726 0.623529 0.411765 1
0.313726 0.623529 0.411765 1
0.313726 0.623529 0.411765 1
0.313726 0.623529 0.411765 1
0.313726 0.623529 0.411765 1
0.313726 0.623529 0.411765 1
0.313726 0.623529 0.411765 1
0.313726 0.623529 0.411765 1
0.313726 0.623529 0.411765 1
0.313726 0.623529 0.411765 1
0.313726 0.623529 0.411765 1
0.313726 0.623529 0.411765 1
0.313726 0.623529 0.411765 1
0.313726 0.623529 0.411765 1
0.313726 0.623529 0.411765 1
0.313726 0.623529 0.411765 1
0.313726 0.623529 0.411765 1
0.313726 0.623529 0.411765 1
0.313726 0.623529 0.411765 1
0.313726 0.623529 0.411765 1
0.313726 0.623529 0.411765 1
0.313726 0.623529 0.411765 1
0.313726 0.623529 0.411765 1
0.313726 0.623529 0.411765 1
0.313726 0.623529 0.411765 1
0.313726 0.623529 0.411765 1
0.313726 0.623529 0.411765 1
0.313726 0.623529 0.411765 1
0.313726 0.623529 0.411765 1
0.313726 0.623529 0.411765 1
0.313726 0.623529 0.411765 1
0.313726 0.623529 0.411765 1
0.313726 0.623529 0.411765 1
0.313726 0.623529 0.411765 1
0.313726 0.623529 0.411765 1
0.313726 0.623529 0.411765 1
0.313726 0.623529 0.411765 1
0.313726 0.623529 0.411765 1
0.313726 0.623529 0.411765 1
0.313726 0.623529 0.411765 1
0.313726 0.623529 0.411765 1
0.313726 0.623529 0.411765 1
0.313726 0.623529 0.411765 1
0.313726 0.623529 0.411765 1
0.313726 0.623529 0.411765 1
0.313726 0.623529 0.411765 1
0.313726 0.623529 0.411765 1
0.313726 0.623529 0.411765 1
0.313726 0.623529 0.411765 1
0.313726 0.623529 0.411765 1
0.313726 0.623529 0.411765 1
0.313726 0.623529 0.411765 1
0.313726 0.623529 0.411765 1
0.313726 0.623529 0.411765 1
0.313726 0.623529 0.411765 1
0.313726 0.623529 0.411765 1
0.313726 0.623529 0.411765 1
0.313726 0.623529 0.411765 1
0.313726 0.623529 0.411765 1
0.313726 0.623529 0.411765 1
0.313726 0.623529 0.411765 1
0.313726 0.623529 0.411765 1
0.313726 0.623529 0.411765 1
0.313726 0.623529 0.411765 1
0.313726 0.623529 0.411765 1
0.313726 0.623529 0.411765 1
0.313726 0.623529 0.411765 1
0.313726 0.623529 0.411765 1
0.313726 0.623529 0.411765 1
0.313726 0.623529 0.411765 1
0.313726 0.623529 0.411765 1
0.313726 0.623529 0.411765 1
0.313726 0.623529 0.411765 1
0.313726 0.623529 0.411765 1
0.313726 0.623529 0.411765 1
0.313726 0.623529 0.411765 1
0.313726 0.623529 0.411765 1
0.313726 0.623529 0.411765 1
0.313726 0.623529 0.411765 1
0.313726 0.623529 0.411765 1
0.313726 0.623529 0.411765 1
0.313726 0.623529 0.411765 1
0.313726 0.623529 0.411765 1
0.313726 0.623529 0.411765 1
0.313726 0.623529 0.411765 1
0.313726 0.623529 0.411765 1
0.313726 0.623529 0.411765 1
0.313726 0.623529 0.411765 1
0.313726 0.623529 0.411765 1
0.313726 0.623529 0.411765 1
0.313726 0.623529 0.411765 1
0.313726 0.623529 0.411765 1
0.313726 0.623529 0.411765 1
0.313726 0.623529 0.411765 1
0.313726 0.623529 0.411765 1
0.313726 0.623529 0.411765 1
0.313726 0.623529 0.411765 1
0.313726 0.623529 0.411765 1
0.313726 0.623529 0.411765 1
0.313726 0.623529 0.411765 1
0.313726 0.623529 0.411765 1
0.313726 0.623529 0.411765 1
0.313726 0.623529 0.411765 1
0.313726 0.623529 0.411765 1
0.313726 0.623529 0.411765 1
0.313726 0.623529 0.411765 1
0.313726 0.623529 0.411765 1
0.313726 0.623529 0.411765 1
0.313726 0.623529 0.411765 1
0.313726 0.623529 0.411765 1
0.313726 0.623529 0.411765 1
0.313726 0.623529 0.411765 1
0.313726 0.623529 0.411765 1
0.313726 0.623529 0.411765 1
0.313726 0.623529 0.411765 1
0.313726 0.623529 0.411765 1
0.313726 0.623529 0.411765 1
0.313726 0.623529 0.411765 1
0.313726 0.623529 0.411765 1
0.313726 0.623529 0.411765 1
0.313726 0.623529 0.411765 1
0.313726 0.623529 0.411765 1
0.313726 0.623529 0.411765 1
0.313726 0.623529 0.411765 1
0.313726 0.623529 0.411765 1
0.313726 0.623529 0.411765 1
0.313726 0.623529 0.411765 1
0.313726 0.623529 0.411765 1
0.313726 0.623529 0.411765 1
0.313726 0.623529 0.411765 1
0.313726 0.623529 0.411765 1
0.313726 0.623529 0.411765 1
0.313726 0.623529 0.411765 1
0.313726 0.623529 0.411765 1
0.313726 0.623529 0.411765 1
0.313726 0.623529 0.411765 1
0.313726 0.623529 0.411765 1
0.313726 0.623529 0.411765 1
0.313726 0.623529 0.411765 1
0.313726 0.623529 0.411765 1
0.313726 0.623529 0.411765 1
0.313726 0.623529 0.411765 1
0.313726 0.623529 0.411765 1
0.313726 0.623529 0.411765 1
0.313726 0.623529 0.411765 1
0.313726 0.623529 0.411765 1
0.313726 0.623529 0.411765 1
0.313726 0.623529 0.411765 1
0.313726 0.623529 0.411765 1
0.313726 0.623529 0.411765 1
0.313726 0.623529 0.411765 1
0.313726 0.623529 0.411765 1
0.313726 0.623529 0.411765 1
0.313726 0.623529 0.411765 1
0.313726 0.623529 0.411765 1
0.313726 0.623529 0.411765 1
0.313726 0.623529 0.411765 1
0.313726 0.623529 0.411765 1
0.313726 0.623529 0.411765 1
0.313726 0.623529 0.411765 1

