# vtk DataFile Version 3.0
Gocad TSurf to VTK
ASCII
DATASET POLYDATA
POINTS 506 float
21590453.938 4570252.305 401.721
21590525.000 4570248.750 342.500
21590600.000 4570250.000 280.000
21590600.000 4570245.000 280.000
21590453.922 4570252.434 401.733
21590900.000 4570721.250 151.875
21590455.102 4570257.813 402.130
21590900.000 4570336.250 54.375
21590750.000 4570245.000 155.000
21591012.500 4570893.750 30.000
21591125.000 4570777.500 -165.000
21590975.000 4570932.500 95.000
21590900.000 4570913.750 200.625
21591050.000 4570938.750 26.250
21591087.500 4570991.250 41.250
21591100.000 4570915.000 -40.000
21591150.000 4570891.250 -106.250
21591150.000 4570985.000 -20.000
21591125.000 4571032.500 52.500
21591275.000 4571047.500 -62.500
21591050.000 4571025.000 110.000
21591500.000 4571701.250 -309.375
21590962.500 4570996.250 161.875
21590937.500 4570971.250 160.000
21590900.000 4571010.000 225.000
21591500.000 4571790.000 -320.000
21590475.242 4570450.938 433.801
21590478.102 4570482.633 439.463
21590469.773 4570390.516 423.006
21590465.203 4570336.148 413.269
21590460.938 4570285.359 404.174
21590435.820 4570478.207 441.450
21590600.000 4570995.000 232.500
21590376.586 4570472.016 444.233
21590937.500 4571117.500 151.250
21591050.000 4571440.000 -70.000
21591350.000 4571830.000 -342.500
21591525.000 4571882.500 -379.375
21591162.500 4571880.000 -350.625
21591387.500 4572411.250 -604.375
21590525.000 4571150.000 152.500
21590450.000 4570807.500 308.750
21590825.000 4571720.000 -196.250
21590900.000 4571950.000 -250.000
21590562.500 4571625.000 -83.125
21590150.000 4571147.500 247.500
21590237.500 4570870.000 351.250
21590300.000 4571505.000 35.000
21589925.000 4570993.750 408.750
21590375.000 4571600.000 -23.750
21590300.000 4571590.000 0.000
21590450.000 4571680.000 -62.500
21591050.000 4572400.000 -535.000
21591137.500 4572566.250 -641.875
21590337.500 4571697.500 -66.250
21590787.500 4572487.500 -567.500
21590000.000 4571790.000 -15.000
21590125.000 4572025.000 -171.250
21589737.500 4570958.750 496.875
21589437.500 4571085.000 583.125
21589705.250 4570856.625 559.764
21589631.313 4570904.109 573.434
21589711.625 4570854.531 558.955
21589716.688 4570851.402 558.041
21589743.219 4570815.379 549.630
21589768.797 4570780.648 541.521
21589781.250 4570763.746 537.574
21589805.492 4570730.828 529.889
21589811.961 4570722.039 527.837
21589825.086 4570704.223 523.677
21589856.359 4570695.766 520.041
21590062.500 4570790.000 428.750
21589901.875 4570686.484 515.310
21590101.383 4570645.809 494.572
21590044.094 4570657.488 500.527
21590156.570 4570634.559 488.836
21590236.289 4570601.418 477.431
21590251.320 4570585.129 473.426
21590296.625 4570536.031 461.356
21590357.539 4570470.023 445.128
21589400.000 4571120.000 585.000
21589775.000 4571726.250 95.625
21589400.000 4571182.500 546.875
21589475.000 4571641.250 243.125
21589388.375 4571123.195 585.436
21589310.953 4571151.332 584.164
21589388.375 4571123.195 585.436
21589400.000 4571557.500 318.125
21589301.750 4571154.676 584.012
21589029.047 4571253.781 579.531
21589027.383 4571253.707 579.427
21589072.352 4571238.043 580.243
21588991.930 4571244.930 576.396
21588975.000 4571276.250 526.875
21588875.000 4571200.000 542.500
21589250.000 4571673.750 216.250
21589487.500 4571743.750 171.875
21588850.000 4571507.500 161.250
21588812.500 4571651.250 -51.250
21588812.500 4571286.250 333.750
21588825.000 4571230.000 432.500
21588750.000 4571336.250 156.250
21588737.500 4571230.000 348.750
21588562.500 4571361.250 -21.250
21588387.500 4571230.000 13.750
21588500.000 4571110.000 370.000
21588600.000 4571497.500 -242.500
21588150.000 4571282.500 -210.625
21588300.000 4571571.250 -546.875
21588125.000 4571020.000 197.500
21587987.500 4571037.500 66.875
21588239.430 4570912.711 567.289
21588146.414 4570870.094 572.263
21588398.711 4570985.688 558.772
21588554.680 4571057.145 550.432
21588671.852 4571110.832 544.167
21588750.000 4571170.000 485.000
21588680.055 4571114.590 543.728
21588770.594 4571150.098 552.948
21588850.461 4571181.418 561.082
21588933.859 4571214.125 569.575
21587778.234 4570701.406 591.950
21587751.445 4570691.281 593.507
21587363.563 4570513.395 614.237
21587306.898 4570498.633 617.916
21587312.500 4570530.000 575.625
21587282.391 4570494.055 619.612
21587700.000 4571005.000 27.500
21587962.500 4571132.500 -79.375
21587375.000 4570880.000 103.750
21587000.000 4570495.000 565.000
21587387.500 4570950.000 9.375
21587950.000 4571432.500 -508.125
21586850.000 4570512.500 512.500
21586700.000 4570530.000 460.000
21586587.500 4570612.500 428.125
21586775.000 4570520.000 486.250
21586850.000 4570510.000 512.500
21586925.000 4570500.000 538.750
21587000.000 4570490.000 565.000
21587146.594 4570477.785 616.308
21587146.727 4570477.609 616.355
21587146.500 4570477.910 616.275
21587152.734 4570478.383 616.795
21587156.320 4570478.656 617.093
21587247.195 4570487.172 622.483
21587253.555 4570488.738 621.516
21587259.773 4570490.273 620.571
21587075.000 4570480.000 591.250
21587147.492 4570476.609 616.622
21587148.445 4570470.207 616.955
21587400.000 4571317.500 -316.875
21586437.500 4570722.500 385.625
21587400.000 4571360.000 -350.000
21587525.000 4571362.500 -373.750
21586400.000 4570750.000 375.000
21586475.000 4570823.750 284.375
21586925.000 4571266.250 -259.375
21586337.500 4570856.250 384.375
21586312.500 4570898.750 388.125
21586300.000 4570920.000 390.000
21587000.000 4571340.000 -350.000
21587487.500 4571622.500 -726.250
21587412.500 4571397.500 -403.750
21587500.000 4571660.000 -780.000
21587600.000 4571686.250 -801.250
21588000.000 4571900.000 -1020.000
21587900.000 4571765.000 -865.000
21588150.000 4571885.000 -985.000
21588200.000 4571843.750 -928.750
21588300.000 4572088.750 -1181.875
21588300.000 4571901.250 -983.125
21588300.000 4572120.000 -1215.000
21588487.500 4572095.000 -1161.875
21588775.000 4572335.000 -1217.500
21588600.000 4572055.000 -1068.750
21588800.000 4572370.000 -1230.000
21588837.500 4572317.500 -1203.750
21588862.500 4572286.250 -1186.250
21588800.000 4572380.000 -1230.000
21588800.000 4572390.000 -1230.000
21588800.000 4572400.000 -1215.000
21588950.000 4572422.500 -1162.500
21589200.000 4572620.000 -1145.000
21589200.000 4572580.000 -1127.500
21589275.000 4572537.500 -1092.500
21589100.000 4572445.000 -1110.000
21589225.000 4572455.000 -989.375
21589250.000 4572430.000 -900.000
21589450.000 4572645.000 -1110.625
21589337.500 4572450.000 -818.125
21589300.000 4572630.000 -1131.250
21589525.000 4572775.000 -1236.250
21589500.000 4572800.000 -1285.000
21589500.000 4572810.000 -1285.000
21589500.000 4572810.000 -1295.000
21589875.000 4572922.500 -1212.500
21589700.000 4572687.500 -991.250
21590450.000 4573337.500 -1613.750
21590300.000 4573180.000 -1430.000
21590500.000 4573390.000 -1675.000
21590512.500 4573380.000 -1643.750
21590525.000 4573370.000 -1612.500
21590537.500 4573360.000 -1581.250
21590550.000 4573350.000 -1550.000
21590562.500 4573340.000 -1518.750
21590575.000 4573330.000 -1487.500
21590587.500 4573320.000 -1456.250
21590150.000 4573022.500 -1246.250
21590600.000 4573310.000 -1425.000
21590100.000 4572970.000 -1185.000
21590637.500 4573312.500 -1383.125
21590000.000 4572888.750 -1001.250
21590012.500 4572795.000 -756.250
21589950.000 4572757.500 -744.375
21590600.000 4573195.000 -1125.625
21590800.000 4573285.000 -1101.875
21590712.500 4573317.500 -1299.375
21590750.000 4573320.000 -1257.500
21590675.000 4573315.000 -1341.250
21590787.500 4573322.500 -1215.625
21590825.000 4573325.000 -1173.750
21590862.500 4573327.500 -1131.875
21590900.000 4573330.000 -1090.000
21590000.000 4572770.000 -695.000
21590450.000 4573000.000 -857.500
21590087.500 4572630.000 -598.750
21590900.000 4573292.500 -1063.750
21590900.000 4573242.500 -1028.750
21590925.000 4573332.500 -1088.125
21590950.000 4573335.000 -1086.250
21590975.000 4573337.500 -1084.375
21591000.000 4573340.000 -1082.500
21591025.000 4573342.500 -1080.625
21591050.000 4573345.000 -1078.750
21591075.000 4573347.500 -1076.875
21590937.500 4573240.000 -1030.000
21590550.000 4572766.250 -687.500
21591100.000 4573350.000 -1075.000
21591112.500 4573345.000 -1078.125
21591050.000 4573270.000 -1060.000
21591125.000 4573340.000 -1081.250
21591137.500 4573335.000 -1084.375
21591150.000 4573330.000 -1087.500
21591087.500 4573280.000 -1070.000
21591162.500 4573325.000 -1090.625
21591175.000 4573320.000 -1093.750
21591187.500 4573315.000 -1096.875
21591200.000 4573310.000 -1100.000
21590512.500 4572668.750 -626.250
21591125.000 4573202.500 -1028.750
21590575.000 4572512.500 -557.500
21591225.000 4573315.000 -1098.750
21591250.000 4573320.000 -1097.500
21591275.000 4573325.000 -1096.250
21591300.000 4573330.000 -1095.000
21590750.000 4572665.000 -672.500
21591325.000 4573335.000 -1093.750
21591350.000 4573340.000 -1092.500
21591375.000 4573345.000 -1091.250
21591400.000 4573350.000 -1090.000
21590725.000 4572475.000 -555.000
21591362.500 4573250.000 -1032.500
21591450.000 4573356.250 -1093.125
21591500.000 4573362.500 -1096.250
21591550.000 4573368.750 -1099.375
21591600.000 4573375.000 -1102.500
21591175.000 4572750.000 -745.000
21591650.000 4573381.250 -1105.625
21591700.000 4573387.500 -1108.750
21591750.000 4573393.750 -1111.875
21591800.000 4573400.000 -1115.000
21591700.000 4573220.000 -1017.500
21591712.500 4572610.000 -817.500
21591800.000 4573362.500 -1097.500
21591912.500 4573418.750 -1167.500
21591837.500 4573406.250 -1132.500
21591875.000 4573412.500 -1150.000
21591950.000 4573425.000 -1185.000
21591987.500 4573431.250 -1202.500
21591800.000 4573137.500 -992.500
21592025.000 4573437.500 -1220.000
21592062.500 4573443.750 -1237.500
21591862.500 4573115.000 -999.375
21592100.000 4573450.000 -1255.000
21592125.000 4573421.250 -1244.375
21592150.000 4573463.750 -1261.875
21592300.000 4573230.000 -1170.000
21592300.000 4573142.500 -1142.500
21592300.000 4573505.000 -1282.500
21592250.000 4573491.250 -1275.625
21592350.000 4573518.750 -1289.375
21592400.000 4573532.500 -1296.250
[...]
POINT_DATA 506
COLOR_SCALARS GocadColor 4
0.819608 0.698116 0.549615 1
0.819608 0.698116 0.549615 1
0.819608 0.698116 0.549615 1
0.819608 0.698116 0.549615 1
0.819608 0.698116 0.549615 1
0.819608 0.698116 0.549615 1
0.819608 0.698116 0.549615 1
0.819608 0.698116 0.549615 1
0.819608 0.698116 0.549615 1
0.819608 0.698116 0.549615 1
0.819608 0.698116 0.549615 1
0.819608 0.698116 0.549615 1
0.819608 0.698116 0.549615 1
0.819608 0.698116 0.549615 1
0.819608 0.698116 0.549615 1
0.819608 0.698116 0.549615 1
0.819608 0.698116 0.549615 1
0.819608 0.698116 0.549615 1
0.819608 0.698116 0.549615 1
0.819608 0.698116 0.549615 1
0.819608 0.698116 0.549615 1
0.819608 0.698116 0.549615 1
0.819608 0.698116 0.549615 1
0.819608 0.698116 0.549615 1
0.819608 0.698116 0.549615 1
0.819608 0.698116 0.549615 1
0.819608 0.698116 0.549615 1
0.819608 0.698116 0.549615 1
0.819608 0.698116 0.549615 1
0.819608 0.698116 0.549615 1
0.819608 0.698116 0.549615 1
0.819608 0.698116 0.549615 1
0.819608 0.698116 0.549615 1
0.819608 0.698116 0.549615 1
0.819608 0.698116 0.549615 1
0.819608 0.698116 0.549615 1
0.819608 0.698116 0.549615 1
0.819608 0.698116 0.549615 1
0.819608 0.698116 0.549615 1
0.819608 0.698116 0.549615 1
0.819608 0.698116 0.549615 1
0.819608 0.698116 0.549615 1
0.819608 0.698116 0.549615 1
0.819608 0.698116 0.549615 1
0.819608 0.698116 0.549615 1
0.819608 0.698116 0.549615 1
0.819608 0.698116 0.549615 1
0.819608 0.698116 0.549615 1
0.819608 0.698116 0.549615 1
0.819608 0.698116 0.549615 1
0.819608 0.698116 0.549615 1
0.819608 0.698116 0.549615 1
0.819608 0.698116 0.549615 1
0.819608 0.698116 0.549615 1
0.819608 0.698116 0.549615 1
0.819608 0.698116 0.549615 1
0.819608 0.698116 0.549615 1
0.819608 0.698116 0.549615 1
0.819608 0.698116 0.549615 1
0.819608 0.698116 0.549615 1
0.819608 0.698116 0.549615 1
0.819608 0.698116 0.549615 1
0.819608 0.698116 0.549615 1
0.819608 0.698116 0.549615 1
0.819608 0.698116 0.549615 1
0.819608 0.698116 0.549615 1
0.819608 0.698116 0.549615 1
0.819608 0.698116 0.549615 1
0.819608 0.698116 0.549615 1
0.819608 0.698116 0.549615 1
0.819608 0.698116 0.549615 1
0.819608 0.698116 0.549615 1
0.819608 0.698116 0.549615 1
0.819608 0.698116 0.549615 1
0.819608 0.698116 0.549615 1
0.819608 0.698116 0.549615 1
0.819608 0.698116 0.549615 1
0.819608 0.698116 0.549615 1
0.819608 0.698116 0.549615 1
0.819608 0.698116 0.549615 1
0.819608 0.698116 0.549615 1
0.819608 0.698116 0.549615 1
0.819608 0.698116 0.549615 1
0.819608 0.698116 0.549615 1
0.819608 0.698116 0.549615 1
0.819608 0.698116 0.549615 1
0.819608 0.698116 0.549615 1
0.819608 0.698116 0.549615 1
0.819608 0.698116 0.549615 1
0.819608 0.698116 0.549615 1
0.819608 0.698116 0.549615 1
0.819608 0.698116 0.549615 1
0.819608 0.698116 0.549615 1
0.819608 0.698116 0.549615 1
0.819608 0.698116 0.549615 1
0.819608 0.698116 0.549615 1
0.819608 0.698116 0.549615 1
0.819608 0.698116 0.549615 1
0.819608 0.698116 0.549615 1
0.819608 0.698116 0.549615 1
0.819608 0.698116 0.549615 1
0.819608 0.698116 0.549615 1
0.819608 0.698116 0.549615 1
0.819608 0.698116 0.549615 1
0.819608 0.698116 0.549615 1
0.819608 0.698116 0.549615 1
0.819608 0.698116 0.549615 1
0.819608 0.698116 0.549615 1
0.819608 0.698116 0.549615 1
0.819608 0.698116 0.549615 1
0.819608 0.698116 0.549615 1
0.819608 0.698116 0.549615 1
0.819608 0.698116 0.549615 1
0.819608 0.698116 0.549615 1
0.819608 0.698116 0.549615 1
0.819608 0.698116 0.549615 1
0.819608 0.698116 0.549615 1
0.819608 0.698116 0.549615 1
0.819608 0.698116 0.549615 1
0.819608 0.698116 0.549615 1
0.819608 0.698116 0.549615 1
0.819608 0.698116 0.549615 1
0.819608 0.698116 0.549615 1
0.819608 0.698116 0.549615 1
0.819608 0.698116 0.549615 1
0.819608 0.698116 0.549615 1
0.819608 0.698116 0.549615 1
0.819608 0.698116 0.549615 1
0.819608 0.698116 0.549615 1
0.819608 0.698116 0.549615 1
0.819608 0.698116 0.549615 1
0.819608 0.698116 0.549615 1
0.819608 0.698116 0.549615 1
0.819608 0.698116 0.549615 1
0.819608 0.698116 0.549615 1
0.819608 0.698116 0.549615 1
0.819608 0.698116 0.549615 1
0.819608 0.698116 0.549615 1
0.819608 0.698116 0.549615 1
0.819608 0.698116 0.549615 1
0.819608 0.698116 0.549615 1
0.819608 0.698116 0.549615 1
0.819608 0.698116 0.549615 1
0.819608 0.698116 0.549615 1
0.819608 0.698116 0.549615 1
0.819608 0.698116 0.549615 1
0.819608 0.698116 0.549615 1
0.819608 0.698116 0.549615 1
0.819608 0.698116 0.549615 1
0.819608 0.698116 0.549615 1
0.819608 0.698116 0.549615 1
0.819608 0.698116 0.549615 1
0.819608 0.698116 0.549615 1
0.819608 0.698116 0.549615 1
0.819608 0.698116 0.549615 1
0.819608 0.698116 0.549615 1
0.819608 0.698116 0.549615 1
0.819608 0.698116 0.549615 1
0.819608 0.698116 0.549615 1
0.819608 0.698116 0.549615 1
0.819608 0.698116 0.549615 1
0.819608 0.698116 0.549615 1
0.819608 0.698116 0.549615 1
0.819608 0.698116 0.549615 1
0.819608 0.698116 0.549615 1
0.819608 0.698116 0.549615 1
0.819608 0.698116 0.549615 1
0.819608 0.698116 0.549615 1
0.819608 0.698116 0.549615 1
0.819608 0.698116 0.549615 1
0.819608 0.698116 0.549615 1
0.819608 0.698116 0.549615 1
0.819608 0.698116 0.549615 1
0.819608 0.698116 0.549615 1
0.819608 0.698116 0.549615 1
0.819608 0.698116 0.549615 1
0.819608 0.698116 0.549615 1
0.819608 0.698116 0.549615 1
0.819608 0.698116 0.549615 1
0.819608 0.698116 0.549615 1
0.819608 0.698116 0.549615 1
0.819608 0.698116 0.549615 1
0.819608 0.698116 0.549615 1
0.819608 0.698116 0.549615 1
0.819608 0.698116 0.549615 1
0.819608 0.698116 0.549615 1
0.819608 0.698116 0.549615 1
0.819608 0.698116 0.549615 1
0.819608 0.698116 0.549615 1
0.819608 0.698116 0.549615 1
0.819608 0.698116 0.549615 1
0.819608 0.698116 0.549615 1
0.819608 0.698116 0.549615 1
0.819608 0.698116 0.549615 1
0.819608 0.698116 0.549615 1
0.819608 0.698116 0.549615 1
0.819608 0.698116 0.549615 1
0.819608 0.698116 0.549615 1
0.819608 0.698116 0.549615 1
0.819608 0.698116 0.549615 1
0.819608 0.698116 0.549615 1
0.819608 0.698116 0.549615 1
0.819608 0.698116 0.549615 1
0.819608 0.698116 0.549615 1
0.819608 0.698116 0.549615 1
0.819608 0.698116 0.549615 1
0.819608 0.698116 0.549615 1
0.819608 0.698116 0.549615 1
0.819608 0.698116 0.549615 1
0.819608 0.698116 0.549615 1
0.819608 0.698116 0.549615 1
0.819608 0.698116 0.549615 1
0.819608 0.698116 0.549615 1
0.819608 0.698116 0.549615 1
0.819608 0.698116 0.549615 1
0.819608 0.698116 0.549615 1
0.819608 0.698116 0.549615 1
0.819608 0.698116 0.549615 1
0.819608 0.698116 0.549615 1
0.819608 0.698116 0.549615 1
0.819608 0.698116 0.549615 1
0.819608 0.698116 0.549615 1
0.819608 0.698116 0.549615 1
0.819608 0.698116 0.549615 1
0.819608 0.698116 0.549615 1
0.819608 0.698116 0.549615 1
0.819608 0.698116 0.549615 1
0.819608 0.698116 0.549615 1
0.819608 0.698116 0.549615 1
0.819608 0.698116 0.549615 1
0.819608 0.698116 0.549615 1
0.819608 0.698116 0.549615 1
0.819608 0.698116 0.549615 1
0.819608 0.698116 0.549615 1
0.819608 0.698116 0.549615 1
0.819608 0.698116 0.549615 1
0.819608 0.698116 0.549615 1
0.819608 0.698116 0.549615 1
0.819608 0.698116 0.549615 1
0.819608 0.698116 0.549615 1
0.819608 0.698116 0.549615 1
0.819608 0.698116 0.549615 1
0.819608 0.698116 0.549615 1
0.819608 0.698116 0.549615 1
0.819608 0.698116 0.549615 1
0.819608 0.698116 0.549615 1
0.819608 0.698116 0.549615 1
0.819608 0.698116 0.549615 1
0.819608 0.698116 0.549615 1
0.819608 0.698116 0.549615 1
0.819608 0.698116 0.549615 1
0.819608 0.698116 0.549615 1
0.819608 0.698116 0.549615 1
0.819608 0.698116 0.549615 1
0.819608 0.698116 0.549615 1
0.819608 0.698116 0.549615 1
0.819608 0.698116 0.549615 1
0.819608 0.698116 0.549615 1
0.819608 0.698116 0.549615 1
0.819608 0.698116 0.549615 1
0.819608 0.698116 0.549615 1
0.819608 0.698116 0.549615 1
0.819608 0.698116 0.549615 1
0.819608 0.698116 0.549615 1
0.819608 0.698116 0.549615 1
0.819608 0.698116 0.549615 1
0.819608 0.698116 0.549615 1
0.819608 0.698116 0.549615 1
0.819608 0.698116 0.549615 1
0.819608 0.698116 0.549615 1
0.819608 0.698116 0.549615 1
0.819608 0.698116 0.549615 1
0.819608 0.698116 0.549615 1
0.819608 0.698116 0.549615 1
0.819608 0.698116 0.549615 1
0.819608 0.698116 0.549615 1
0.819608 0.698116 0.549615 1
0.819608 0.698116 0.549615 1
0.819608 0.698116 0.549615 1
0.819608 0.698116 0.549615 1
0.819608 0.698116 0.549615 1
0.819608 0.698116 0.549615 1
0.819608 0.698116 0.549615 1
0.819608 0.698116 0.549615 1
0.819608 0.698116 0.549615 1
0.819608 0.698116 0.549615 1
0.819608 0.698116 0.549615 1
0.819608 0.698116 0.549615 1
0.819608 0.698116 0.549615 1
0.819608 0.698116 0.549615 1
0.819608 0.698116 0.549615 1
0.819608 0.698116 0.549615 1
0.819608 0.698116 0.549615 1
0.819608 0.698116 0.549615 1
0.819608 0.698116 0.549615 1
0.819608 0.698116 0.549615 1
0.819608 0.698116 0.549615 1
0.819608 0.698116 0.549615 1
0.819608 0.698116 0.549615 1
0.819608 0.698116 0.549615 1
0.819608 0.698116 0.549615 1
0.819608 0.698116 0.549615 1
0.819608 0.698116 0.549615 1
0.819608 0.698116 0.549615 1
0.819608 0.698116 0.549615 1
0.819608 0.698116 0.549615 1
0.819608 0.698116 0.549615 1
0.819608 0.698116 0.549615 1
0.819608 0.698116 0.549615 1
0.819608 0.698116 0.549615 1
0.819608 0.698116 0.549615 1
0.819608 0.698116 0.549615 1
0.819608 0.698116 0.549615 1
0.819608 0.698116 0.549615 1
0.819608 0.698116 0.549615 1
0.819608 0.698116 0.549615 1
0.819608 0.698116 0.549615 1
0.819608 0.698116 0.549615 1
0.819608 0.698116 0.549615 1
0.819608 0.698116 0.549615 1
0.819608 0.698116 0.549615 1
0.819608 0.698116 0.549615 1
0.819608 0.698116 0.549615 1
0.819608 0.698116 0.549615 1
0.819608 0.698116 0.549615 1
0.819608 0.698116 0.549615 1
0.819608 0.698116 0.549615 1
0.819608 0.698116 0.549615 1
0.819608 0.698116 0.549615 1
0.819608 0.698116 0.549615 1
0.819608 0.698116 0.549615 1
0.819608 0.698116 0.549615 1
0.819608 0.698116 0.549615 1
0.819608 0.698116 0.549615 1
0.819608 0.698116 0.549615 1
0.819608 0.698116 0.549615 1
0.819608 0.698116 0.549615 1
0.819608 0.698116 0.549615 1
0.819608 0.698116 0.549615 1
0.819608 0.698116 0.549615 1
0.819608 0.698116 0.549615 1
0.819608 0.698116 0.549615 1
0.819608 0.698116 0.549615 1
0.819608 0.698116 0.549615 1
0.819608 0.698116 0.549615 1
0.819608 0.698116 0.549615 1
0.819608 0.698116 0.549615 1
0.819608 0.698116 0.549615 1
0.819608 0.698116 0.549615 1
0.819608 0.698116 0.549615 1
0.819608 0.698116 0.549615 1
0.819608 0.698116 0.549615 1
0.819608 0.698116 0.549615 1
0.819608 0.698116 0.549615 1
0.819608 0.698116 0.549615 1
0.819608 0.698116 0.549615 1
0.819608 0.698116 0.549615 1
0.819608 0.698116 0.549615 1
0.819608 0.698116 0.549615 1
0.819608 0.698116 0.549615 1
0.819608 0.698116 0.549615 1
0.819608 0.698116 0.549615 1
0.819608 0.698116 0.549615 1
0.819608 0.698116 0.549615 1
0.819608 0.698116 0.549615 1
0.819608 0.698116 0.549615 1
0.819608 0.698116 0.549615 1
0.819608 0.698116 0.549615 1
0.819608 0.698116 0.549615 1
0.819608 0.698116 0.549615 1
0.819608 0.698116 0.549615 1
0.819608 0.698116 0.549615 1
0.819608 0.698116 0.549615 1
0.819608 0.698116 0.549615 1
0.819608 0.698116 0.549615 1
0.819608 0.698116 0.549615 1
0.819608 0.698116 0.549615 1
0.819608 0.698116 0.549615 1
0.819608 0.698116 0.549615 1
0.819608 0.698116 0.549615 1
0.819608 0.698116 0.549615 1
0.819608 0.698116 0.549615 1
0.819608 0.698116 0.549615 1
0.819608 0.698116 0.549615 1
0.819608 0.698116 0.549615 1
0.819608 0.698116 0.549615 1
0.819608 0.698116 0.549615 1
0.819608 0.698116 0.549615 1
0.819608 0.698116 0.549615 1
0.819608 0.698116 0.549615 1
0.819608 0.698116 0.549615 1
0.819608 0.698116 0.549615 1
0.819608 0.698116 0.549615 1
0.819608 0.698116 0.549615 1
0.819608 0.698116 0.549615 1
0.819608 0.698116 0.549615 1
0.819608 0.698116 0.549615 1
0.819608 0.698116 0.549615 1
0.819608 0.698116 0.549615 1
0.819608 0.698116 0.549615 1
0.819608 0.698116 0.549615 1
0.819608 0.698116 0.549615 1
0.819608 0.698116 0.549615 1
0.819608 0.698116 0.549615 1
0.819608 0.698116 0.549615 1
0.819608 0.698116 0.549615 1
0.819608 0.698116 0.549615 1
0.819608 0.698116 0.549615 1
0.819608 0.698116 0.549615 1
0.819608 0.698116 0.549615 1
0.819608 0.698116 0.549615 1
0.819608 0.698116 0.549615 1
0.819608 0.698116 0.549615 1
0.819608 0.698116 0.549615 1
0.819608 0.698116 0.549615 1
0.819608 0.698116 0.549615 1
0.819608 0.698116 0.549615 1
0.819608 0.698116 0.549615 1
0.819608 0.698116 0.549615 1
0.819608 0.698116 0.549615 1
0.819608 0.698116 0.549615 1
0.819608 0.698116 0.549615 1
0.819608 0.698116 0.549615 1
0.819608 0.698116 0.549615 1
0.819608 0.698116 0.549615 1
0.819608 0.698116 0.549615 1
0.819608 0.698116 0.549615 1
0.819608 0.698116 0.549615 1
0.819608 0.698116 0.549615 1
0.819608 0.698116 0.549615 1
0.819608 0.698116 0.549615 1
0.819608 0.698116 0.549615 1
0.819608 0.698116 0.549615 1
0.819608 0.698116 0.549615 1
0.819608 0.698116 0.549615 1
0.819608 0.698116 0.549615 1
0.819608 0.698116 0.549615 1
0.819608 0.698116 0.549615 1
0.819608 0.698116 0.549615 1
0.819608 0.698116 0.549615 1
0.819608 0.698116 0.549615 1
0.819608 0.698116 0.549615 1
0.819608 0.698116 0.549615 1
0.819608 0.698116 0.549615 1
0.819608 0.698116 0.549615 1
0.819608 0.698116 0.549615 1
0.819608 0.698116 0.549615 1
0.819608 0.698116 0.549615 1
0.819608 0.698116 0.549615 1
0.819608 0.698116 0.549615 1
0.819608 0.698116 0.549615 1
0.819608 0.698116 0.549615 1
0.819608 0.698116 0.549615 1
0.819608 0.698116 0.549615 1
0.819608 0.698116 0.549615 1
0.819608 0.698116 0.549615 1
0.819608 0.698116 0.549615 1
0.819608 0.698116 0.549615 1
0.819608 0.698116 0.549615 1
0.819608 0.698116 0.549615 1
0.819608 0.698116 0.549615 1
0.819608 0.698116 0.549615 1
0.819608 0.698116 0.549615 1
0.819608 0.698116 0.549615 1
0.819608 0.698116 0.549615 1
0.819608 0.698116 0.549615 1
0.819608 0.698116 0.549615 1
0.819608 0.698116 0.549615 1
0.819608 0.698116 0.549615 1
0.819608 0.698116 0.549615 1
0.819608 0.698116 0.549615 1
0.819608 0.698116 0.549615 1
0.819608 0.698116 0.549615 1
0.819608 0.698116 0.549615 1
0.819608 0.698116 0.549615 1
0.819608 0.698116 0.549615 1
0.819608 0.698116 0.549615 1
0.819608 0.698116 0.549615 1
0.819608 0.698116 0.549615 1
0.819608 0.698116 0.549615 1
0.819608 0.698116 0.549615 1
0.819608 0.698116 0.549615 1
0.819608 0.698116 0.549615 1
0.819608 0.698116 0.549615 1
0.819608 0.698116 0.549615 1
0.819608 0.698116 0.549615 1
0.819608 0.698116 0.549615 1
0.819608 0.698116 0.549615 1
0.819608 0.698116 0.549615 1
0.819608 0.698116 0.549615 1
0.819608 0.698116 0.549615 1
0.819608 0.698116 0.549615 1
0.819608 0.698116 0.549615 1
0.819608 0.698116 0.549615 1
0.819608 0.698116 0.549615 1
0.819608 0.698116 0.549615 1
0.819608 0.698116 0.549615 1
0.819608 0.698116 0.549615 1
0.819608 0.698116 0.549615 1
0.819608 0.698116 0.549615 1
0.819608 0.698116 0.549615 1
0.819608 0.698116 0.549615 1
0.819608 0.698116 0.549615 1
0.819608 0.698116 0.549615 1
0.819608 0.698116 0.549615 1
0.819608 0.698116 0.549615 1

