# vtk DataFile Version 3.0
Gocad TSurf to VTK
ASCII
DATASET POLYDATA
POINTS 930 float
21514584.313 4558096.699 107.221
21514575.000 4558192.500 56.250
21514652.000 4558095.480 107.839
21514712.609 4558094.391 108.392
21514550.000 4558115.000 97.500
21514557.578 4558097.184 106.977
21514575.000 4558192.500 56.250
21514550.000 4558115.000 97.500
21514600.000 4558270.000 15.000
21514778.375 4558093.859 108.644
21514425.000 4558282.500 15.000
21514450.000 4558175.000 70.000
21514400.000 4558390.000 -40.000
21514325.000 4558327.500 12.500
21514550.000 4558380.000 -62.500
21514400.000 4558470.000 -103.750
21514700.000 4558310.000 -10.000
21514800.000 4558350.000 -35.000
21514700.000 4558310.000 -10.000
21514900.000 4558110.000 100.000
21514925.000 4558190.000 53.750
21514855.297 4558093.238 108.939
21514903.125 4558096.230 109.076
21514917.266 4558098.070 109.104
21514922.000 4558098.688 109.113
21514967.891 4558115.656 109.052
21515029.313 4558133.672 109.034
21515040.250 4558136.883 109.031
21514950.000 4558270.000 7.500
21515141.516 4558166.582 109.002
21514800.000 4558350.000 -35.000
21514900.000 4558390.000 -60.000
21514900.000 4558390.000 -60.000
21514975.000 4558350.000 -38.750
21515160.969 4558172.289 108.997
21515000.000 4558430.000 -85.000
21515277.094 4558206.348 108.963
21514450.000 4558600.000 -217.500
21514500.000 4558490.000 -140.000
21514400.000 4558710.000 -295.000
21514950.000 4558565.000 -122.500
21514400.000 4558630.000 -231.250
21514400.000 4558550.000 -167.500
21514400.000 4558637.500 -231.250
21514400.000 4558555.000 -167.500
21514400.000 4558720.000 -295.000
21514500.000 4558775.000 -280.000
21514325.000 4558677.500 -225.000
21514100.000 4558812.500 -296.250
21514100.000 4558725.000 -202.500
21514100.000 4558900.000 -390.000
21514375.000 4558840.000 -326.250
21513875.000 4558902.500 -296.250
21513950.000 4558785.000 -202.500
21513800.000 4559020.000 -390.000
21513925.000 4559065.000 -397.500
21513750.000 4558967.500 -275.000
21513700.000 4558915.000 -160.000
21513750.000 4558967.500 -275.000
21513525.000 4559095.000 -245.000
21513550.000 4559000.000 -140.000
21513500.000 4559190.000 -350.000
21513800.000 4559117.500 -407.500
21513225.000 4559237.500 -140.000
21513350.000 4559095.000 -70.000
21513100.000 4559380.000 -210.000
21513175.000 4559427.500 -258.750
21512775.000 4559477.500 70.000
21513050.000 4559255.000 70.000
21512641.938 4559585.160 70.000
21512775.000 4559477.500 70.000
21512503.766 4559697.988 68.239
21512502.266 4559700.395 68.192
21512600.000 4559717.500 -10.000
21512484.469 4559727.191 67.669
21513050.000 4559477.500 -220.000
21512700.000 4559735.000 -90.000
21513250.000 4559475.000 -307.500
21513000.000 4559575.000 -230.000
21513475.000 4559285.000 -363.750
21513450.000 4559380.000 -377.500
21513575.000 4559245.000 -377.500
21513650.000 4559300.000 -405.000
21513800.000 4559215.000 -425.000
21514050.000 4559110.000 -405.000
21514150.000 4558975.000 -397.500
21513800.000 4559312.500 -442.500
21514175.000 4559155.000 -412.500
21514200.000 4559050.000 -405.000
21513800.000 4559410.000 -460.000
21513725.000 4559355.000 -432.500
21514300.000 4559200.000 -420.000
21514250.000 4559125.000 -412.500
21513900.000 4559420.000 -428.750
21513800.000 4559460.000 -446.250
21514275.000 4559262.500 -398.750
21514400.000 4559210.000 -367.500
21514000.000 4559430.000 -397.500
21513800.000 4559510.000 -432.500
21514250.000 4559325.000 -377.500
21514100.000 4559440.000 -366.250
21513800.000 4559560.000 -418.750
21514225.000 4559387.500 -356.250
21514500.000 4559220.000 -315.000
21514200.000 4559450.000 -335.000
21514600.000 4559230.000 -262.500
21513800.000 4559610.000 -405.000
21514150.000 4559522.500 -338.750
21513700.000 4559600.000 -405.000
21513400.000 4559750.000 -405.000
21513725.000 4559692.500 -391.250
21513400.000 4559705.000 -405.000
21513600.000 4559590.000 -405.000
21513275.000 4559755.000 -366.250
21513400.000 4559660.000 -405.000
21513000.000 4559920.000 -305.000
21513125.000 4559925.000 -316.250
21512975.000 4559882.500 -291.250
21513150.000 4559760.000 -327.500
21512600.000 4560032.500 -156.250
21512700.000 4559945.000 -187.500
21512500.000 4560120.000 -125.000
21512600.000 4560132.500 -142.500
21512450.000 4560102.500 -83.750
21512400.000 4560085.000 -42.500
21512200.000 4560250.000 55.000
21512275.000 4560267.500 45.000
21512225.000 4560200.000 51.250
21512225.000 4560200.000 51.250
21512250.000 4560150.000 47.500
21512250.000 4560150.000 47.500
21512275.000 4560100.000 43.750
21512350.000 4560067.500 -1.250
21512275.000 4560100.000 43.750
21512300.000 4560050.000 40.000
21512800.000 4559857.500 -218.750
21512900.000 4559770.000 -250.000
21512950.000 4559845.000 -277.500
21512925.000 4559807.500 -263.750
21513025.000 4559765.000 -288.750
21513400.000 4559570.000 -405.000
21512950.000 4559672.500 -240.000
21513400.000 4559615.000 -405.000
21513500.000 4559580.000 -405.000
21513425.000 4559475.000 -391.250
21513325.000 4559522.500 -356.250
21512800.000 4559752.500 -170.000
21512350.000 4559962.500 47.500
21512350.000 4559962.500 47.500
21512400.000 4559875.000 55.000
21512350.000 4559962.500 47.500
21512400.000 4559875.000 55.000
21512400.000 4559875.000 55.000
21512450.000 4559787.500 62.500
21512450.000 4559787.500 62.500
21512450.000 4559787.500 62.500
21512484.469 4559727.191 67.669
21512484.469 4559727.191 67.669
21512500.000 4560170.000 -90.000
21512350.000 4560285.000 35.000
21512500.000 4560220.000 -55.000
21512700.000 4560145.000 -160.000
21512975.000 4559982.500 -277.500
21512500.000 4560270.000 -20.000
21512425.000 4560302.500 25.000
21512800.000 4560157.500 -177.500
21512950.000 4560045.000 -250.000
21512500.000 4560320.000 15.000
21512900.000 4560170.000 -195.000
21512925.000 4560107.500 -222.500
21512850.000 4560235.000 -142.500
21512550.000 4560347.500 15.000
21512950.000 4560195.000 -198.750
21513000.000 4560220.000 -202.500
21513400.000 4560022.500 -315.000
21513300.000 4560105.000 -280.000
21513500.000 4559940.000 -350.000
21513525.000 4559980.000 -346.250
21513375.000 4559935.000 -338.750
21513475.000 4559892.500 -363.750
21513250.000 4559930.000 -327.500
21513450.000 4559845.000 -377.500
21513425.000 4559797.500 -391.250
21513650.000 4559775.000 -377.500
21513900.000 4559675.000 -377.500
21513850.000 4559642.500 -391.250
21513950.000 4559707.500 -363.750
21513575.000 4559857.500 -363.750
21514050.000 4559667.500 -346.250
21514000.000 4559740.000 -350.000
21514100.000 4559595.000 -342.500
21514425.000 4559540.000 -282.500
21514350.000 4559510.000 -300.000
21514275.000 4559480.000 -317.500
21514550.000 4559487.500 -251.250
21514500.000 4559570.000 -265.000
21514600.000 4559405.000 -237.500
21514775.000 4559390.000 -198.750
21514650.000 4559322.500 -223.750
21514750.000 4559340.000 -202.500
21514700.000 4559240.000 -210.000
21514725.000 4559290.000 -206.250
21514950.000 4559210.000 -126.250
21515700.000 4558850.000 100.000
21515700.000 4558917.500 106.250
21514850.000 4559122.500 -167.500
21515600.000 4558830.000 65.000
21514725.000 4559172.500 -216.250
21514750.000 4559105.000 -222.500
21514775.000 4559037.500 -228.750
21515000.000 4559005.000 -125.000
21514800.000 4558970.000 -235.000
21515150.000 4558887.500 -82.500
21514325.000 4559080.000 -388.750
21514700.000 4558907.500 -250.000
21514350.000 4558960.000 -357.500
21514600.000 4558845.000 -265.000
21514500.000 4558782.500 -280.000
21514700.000 4558905.000 -250.000
21514600.000 4558840.000 -265.000
21514850.000 4558835.000 -197.500
21514900.000 4558700.000 -160.000
21515150.000 4558600.000 -62.500
21515075.000 4558515.000 -73.750
21515225.000 4558685.000 -51.250
21515300.000 4558535.000 7.500
21515150.000 4558482.500 -38.750
21515450.000 4558587.500 53.750
21515510.797 4558473.520 106.181
21515300.000 4558770.000 -40.000
21515600.000 4558640.000 100.000
21515594.266 4558612.445 104.593
21515400.000 4558790.000 -5.000
21515625.000 4558692.500 100.000
21515600.000 4558692.500 100.000
21515500.000 4558810.000 30.000
21515650.000 4558745.000 100.000
21515600.000 4558745.000 100.000
21515675.000 4558797.500 100.000
21515600.000 4558797.500 100.000
21515600.000 4558850.000 100.000
21515625.000 4558917.500 106.250
21515700.000 4558917.500 106.250
21515629.469 4558929.570 107.367
21515681.750 4558942.137 108.531
21515700.000 4558946.523 108.937
21515700.000 4558946.523 108.937
21515700.000 4558946.523 108.937
21515200.000 4559180.000 -42.500
21515689.094 4558989.254 109.120
21515450.000 4559150.000 41.250
21515688.188 4558992.793 109.135
21514800.000 4559440.000 -195.000
21515654.328 4559125.480 109.702
21515657.406 4559135.145 109.854
21515669.969 4559064.211 109.440
21515658.625 4559137.777 109.903
21515025.000 4559410.000 -121.250
21515677.234 4559178.098 110.654
21514775.000 4559500.000 -202.500
21514750.000 4559560.000 -210.000
21514550.000 4559597.500 -255.000
21514450.000 4559637.500 -286.250
21514600.000 4559625.000 -245.000
21514075.000 4559765.000 -350.000
21514400.000 4559705.000 -307.500
21513975.000 4559797.500 -356.250
21513950.000 4559855.000 -362.500
21513600.000 4559947.500 -356.250
21513700.000 4559955.000 -362.500
21513550.000 4560020.000 -342.500
21513575.000 4560060.000 -338.750
21513200.000 4560187.500 -245.000
21513600.000 4560100.000 -335.000
21513800.000 4559962.500 -368.750
21513100.000 4560270.000 -210.000
21513050.000 4560245.000 -206.250
21513200.000 4560340.000 -227.500
21513050.000 4560390.000 -175.000
21513575.000 4560212.500 -321.250
21513300.000 4560410.000 -245.000
21513650.000 4560177.500 -338.750
21513700.000 4560255.000 -342.500
21513875.000 4560080.000 -368.750
21513850.000 4560190.000 -362.500
21513900.000 4559970.000 -375.000
21513975.000 4560045.000 -361.250
21513925.000 4559912.500 -368.750
21514225.000 4559815.000 -350.000
21514150.000 4559790.000 -350.000
21514350.000 4559772.500 -328.750
21514650.000 4559652.500 -235.000
21514700.000 4559680.000 -225.000
21514725.000 4559620.000 -217.500
21514300.000 4559840.000 -350.000
21514400.000 4559897.500 -318.750
[...]
POINT_DATA 930
COLOR_SCALARS GocadColor 4
0 1 0.48333 1
0 1 0.48333 1
0 1 0.48333 1
0 1 0.48333 1
0 1 0.48333 1
0 1 0.48333 1
0 1 0.48333 1
0 1 0.48333 1
0 1 0.48333 1
0 1 0.48333 1
0 1 0.48333 1
0 1 0.48333 1
0 1 0.48333 1
0 1 0.48333 1
0 1 0.48333 1
0 1 0.48333 1
0 1 0.48333 1
0 1 0.48333 1
0 1 0.48333 1
0 1 0.48333 1
0 1 0.48333 1
0 1 0.48333 1
0 1 0.48333 1
0 1 0.48333 1
0 1 0.48333 1
0 1 0.48333 1
0 1 0.48333 1
0 1 0.48333 1
0 1 0.48333 1
0 1 0.48333 1
0 1 0.48333 1
0 1 0.48333 1
0 1 0.48333 1
0 1 0.48333 1
0 1 0.48333 1
0 1 0.48333 1
0 1 0.48333 1
0 1 0.48333 1
0 1 0.48333 1
0 1 0.48333 1
0 1 0.48333 1
0 1 0.48333 1
0 1 0.48333 1
0 1 0.48333 1
0 1 0.48333 1
0 1 0.48333 1
0 1 0.48333 1
0 1 0.48333 1
0 1 0.48333 1
0 1 0.48333 1
0 1 0.48333 1
0 1 0.48333 1
0 1 0.48333 1
0 1 0.48333 1
0 1 0.48333 1
0 1 0.48333 1
0 1 0.48333 1
0 1 0.48333 1
0 1 0.48333 1
0 1 0.48333 1
0 1 0.48333 1
0 1 0.48333 1
0 1 0.48333 1
0 1 0.48333 1
0 1 0.48333 1
0 1 0.48333 1
0 1 0.48333 1
0 1 0.48333 1
0 1 0.48333 1
0 1 0.48333 1
0 1 0.48333 1
0 1 0.48333 1
0 1 0.48333 1
0 1 0.48333 1
0 1 0.48333 1
0 1 0.48333 1
0 1 0.48333 1
0 1 0.48333 1
0 1 0.48333 1
0 1 0.48333 1
0 1 0.48333 1
0 1 0.48333 1
0 1 0.48333 1
0 1 0.48333 1
0 1 0.48333 1
0 1 0.48333 1
0 1 0.48333 1
0 1 0.48333 1
0 1 0.48333 1
0 1 0.48333 1
0 1 0.48333 1
0 1 0.48333 1
0 1 0.48333 1
0 1 0.48333 1
0 1 0.48333 1
0 1 0.48333 1
0 1 0.48333 1
0 1 0.48333 1
0 1 0.48333 1
0 1 0.48333 1
0 1 0.48333 1
0 1 0.48333 1
0 1 0.48333 1
0 1 0.48333 1
0 1 0.48333 1
0 1 0.48333 1
0 1 0.48333 1
0 1 0.48333 1
0 1 0.48333 1
0 1 0.48333 1
0 1 0.48333 1
0 1 0.48333 1
0 1 0.48333 1
0 1 0.48333 1
0 1 0.48333 1
0 1 0.48333 1
0 1 0.48333 1
0 1 0.48333 1
0 1 0.48333 1
0 1 0.48333 1
0 1 0.48333 1
0 1 0.48333 1
0 1 0.48333 1
0 1 0.48333 1
0 1 0.48333 1
0 1 0.48333 1
0 1 0.48333 1
0 1 0.48333 1
0 1 0.48333 1
0 1 0.48333 1
0 1 0.48333 1
0 1 0.48333 1
0 1 0.48333 1
0 1 0.48333 1
0 1 0.48333 1
0 1 0.48333 1
0 1 0.48333 1
0 1 0.48333 1
0 1 0.48333 1
0 1 0.48333 1
0 1 0.48333 1
0 1 0.48333 1
0 1 0.48333 1
0 1 0.48333 1
0 1 0.48333 1
0 1 0.48333 1
0 1 0.48333 1
0 1 0.48333 1
0 1 0.48333 1
0 1 0.48333 1
0 1 0.48333 1
0 1 0.48333 1
0 1 0.48333 1
0 1 0.48333 1
0 1 0.48333 1
0 1 0.48333 1
0 1 0.48333 1
0 1 0.48333 1
0 1 0.48333 1
0 1 0.48333 1
0 1 0.48333 1
0 1 0.48333 1
0 1 0.48333 1
0 1 0.48333 1
0 1 0.48333 1
0 1 0.48333 1
0 1 0.48333 1
0 1 0.48333 1
0 1 0.48333 1
0 1 0.48333 1
0 1 0.48333 1
0 1 0.48333 1
0 1 0.48333 1
0 1 0.48333 1
0 1 0.48333 1
0 1 0.48333 1
0 1 0.48333 1
0 1 0.48333 1
0 1 0.48333 1
0 1 0.48333 1
0 1 0.48333 1
0 1 0.48333 1
0 1 0.48333 1
0 1 0.48333 1
0 1 0.48333 1
0 1 0.48333 1
0 1 0.48333 1
0 1 0.48333 1
0 1 0.48333 1
0 1 0.48333 1
0 1 0.48333 1
0 1 0.48333 1
0 1 0.48333 1
0 1 0.48333 1
0 1 0.48333 1
0 1 0.48333 1
0 1 0.48333 1
0 1 0.48333 1
0 1 0.48333 1
0 1 0.48333 1
0 1 0.48333 1
0 1 0.48333 1
0 1 0.48333 1
0 1 0.48333 1
0 1 0.48333 1
0 1 0.48333 1
0 1 0.48333 1
0 1 0.48333 1
0 1 0.48333 1
0 1 0.48333 1
0 1 0.48333 1
0 1 0.48333 1
0 1 0.48333 1
0 1 0.48333 1
0 1 0.48333 1
0 1 0.48333 1
0 1 0.48333 1
0 1 0.48333 1
0 1 0.48333 1
0 1 0.48333 1
0 1 0.48333 1
0 1 0.48333 1
0 1 0.48333 1
0 1 0.48333 1
0 1 0.48333 1
0 1 0.48333 1
0 1 0.48333 1
0 1 0.48333 1
0 1 0.48333 1
0 1 0.48333 1
0 1 0.48333 1
0 1 0.48333 1
0 1 0.48333 1
0 1 0.48333 1
0 1 0.48333 1
0 1 0.48333 1
0 1 0.48333 1
0 1 0.48333 1
0 1 0.48333 1
0 1 0.48333 1
0 1 0.48333 1
0 1 0.48333 1
0 1 0.48333 1
0 1 0.48333 1
0 1 0.48333 1
0 1 0.48333 1
0 1 0.48333 1
0 1 0.48333 1
0 1 0.48333 1
0 1 0.48333 1
0 1 0.48333 1
0 1 0.48333 1
0 1 0.48333 1
0 1 0.48333 1
0 1 0.48333 1
0 1 0.48333 1
0 1 0.48333 1
0 1 0.48333 1
0 1 0.48333 1
0 1 0.48333 1
0 1 0.48333 1
0 1 0.48333 1
0 1 0.48333 1
0 1 0.48333 1
0 1 0.48333 1
0 1 0.48333 1
0 1 0.48333 1
0 1 0.48333 1
0 1 0.48333 1
0 1 0.48333 1
0 1 0.48333 1
0 1 0.48333 1
0 1 0.48333 1
0 1 0.48333 1
0 1 0.48333 1
0 1 0.48333 1
0 1 0.48333 1
0 1 0.48333 1
0 1 0.48333 1
0 1 0.48333 1
0 1 0.48333 1
0 1 0.48333 1
0 1 0.48333 1
0 1 0.48333 1
0 1 0.48333 1
0 1 0.48333 1
0 1 0.48333 1
0 1 0.48333 1
0 1 0.48333 1
0 1 0.48333 1
0 1 0.48333 1
0 1 0.48333 1
0 1 0.48333 1
0 1 0.48333 1
0 1 0.48333 1
0 1 0.48333 1
0 1 0.48333 1
0 1 0.48333 1
0 1 0.48333 1
0 1 0.48333 1
0 1 0.48333 1
0 1 0.48333 1
0 1 0.48333 1
0 1 0.48333 1
0 1 0.48333 1
0 1 0.48333 1
0 1 0.48333 1
0 1 0.48333 1
0 1 0.48333 1
0 1 0.48333 1
0 1 0.48333 1
0 1 0.48333 1
0 1 0.48333 1
0 1 0.48333 1
0 1 0.48333 1
0 1 0.48333 1
0 1 0.48333 1
0 1 0.48333 1
0 1 0.48333 1
0 1 0.48333 1
0 1 0.48333 1
0 1 0.48333 1
0 1 0.48333 1
0 1 0.48333 1
0 1 0.48333 1
0 1 0.48333 1
0 1 0.48333 1
0 1 0.48333 1
0 1 0.48333 1
0 1 0.48333 1
0 1 0.48333 1
0 1 0.48333 1
0 1 0.48333 1
0 1 0.48333 1
0 1 0.48333 1
0 1 0.48333 1
0 1 0.48333 1
0 1 0.48333 1
0 1 0.48333 1
0 1 0.48333 1
0 1 0.48333 1
0 1 0.48333 1
0 1 0.48333 1
0 1 0.48333 1
0 1 0.48333 1
0 1 0.48333 1
0 1 0.48333 1
0 1 0.48333 1
0 1 0.48333 1
0 1 0.48333 1
0 1 0.48333 1
0 1 0.48333 1
0 1 0.48333 1
0 1 0.48333 1
0 1 0.48333 1
0 1 0.48333 1
0 1 0.48333 1
0 1 0.48333 1
0 1 0.48333 1
0 1 0.48333 1
0 1 0.48333 1
0 1 0.48333 1
0 1 0.48333 1
0 1 0.48333 1
0 1 0.48333 1
0 1 0.48333 1
0 1 0.48333 1
0 1 0.48333 1
0 1 0.48333 1
0 1 0.48333 1
0 1 0.48333 1
0 1 0.48333 1
0 1 0.48333 1
0 1 0.48333 1
0 1 0.48333 1
0 1 0.48333 1
0 1 0.48333 1
0 1 0.48333 1
0 1 0.48333 1
0 1 0.48333 1
0 1 0.48333 1
0 1 0.48333 1
0 1 0.48333 1
0 1 0.48333 1
0 1 0.48333 1
0 1 0.48333 1
0 1 0.48333 1
0 1 0.48333 1
0 1 0.48333 1
0 1 0.48333 1
0 1 0.48333 1
0 1 0.48333 1
0 1 0.48333 1
0 1 0.48333 1
0 1 0.48333 1
0 1 0.48333 1
0 1 0.48333 1
0 1 0.48333 1
0 1 0.48333 1
0 1 0.48333 1
0 1 0.48333 1
0 1 0.48333 1
0 1 0.48333 1
0 1 0.48333 1
0 1 0.48333 1
0 1 0.48333 1
0 1 0.48333 1
0 1 0.48333 1
0 1 0.48333 1
0 1 0.48333 1
0 1 0.48333 1
0 1 0.48333 1
0 1 0.48333 1
0 1 0.48333 1
0 1 0.48333 1
0 1 0.48333 1
0 1 0.48333 1
0 1 0.48333 1
0 1 0.48333 1
0 1 0.48333 1
0 1 0.48333 1
0 1 0.48333 1
0 1 0.48333 1
0 1 0.48333 1
0 1 0.48333 1
0 1 0.48333 1
0 1 0.48333 1
0 1 0.48333 1
0 1 0.48333 1
0 1 0.48333 1
0 1 0.48333 1
0 1 0.48333 1
0 1 0.48333 1
0 1 0.48333 1
0 1 0.48333 1
0 1 0.48333 1
0 1 0.48333 1
0 1 0.48333 1
0 1 0.48333 1
0 1 0.48333 1
0 1 0.48333 1
0 1 0.48333 1
0 1 0.48333 1
0 1 0.48333 1
0 1 0.48333 1
0 1 0.48333 1
0 1 0.48333 1
0 1 0.48333 1
0 1 0.48333 1
0 1 0.48333 1
0 1 0.48333 1
0 1 0.48333 1
0 1 0.48333 1
0 1 0.48333 1
0 1 0.48333 1
0 1 0.48333 1
0 1 0.48333 1
0 1 0.48333 1
0 1 0.48333 1
0 1 0.48333 1
0 1 0.48333 1
0 1 0.48333 1
0 1 0.48333 1
0 1 0.48333 1
0 1 0.48333 1
0 1 0.48333 1
0 1 0.48333 1
0 1 0.48333 1
0 1 0.48333 1
0 1 0.48333 1
0 1 0.48333 1
0 1 0.48333 1
0 1 0.48333 1
0 1 0.48333 1
0 1 0.48333 1
0 1 0.48333 1
0 1 0.48333 1
0 1 0.48333 1
0 1 0.48333 1
0 1 0.48333 1
0 1 0.48333 1
0 1 0.48333 1
0 1 0.48333 1
0 1 0.48333 1
0 1 0.48333 1
0 1 0.48333 1
0 1 0.48333 1
0 1 0.48333 1
0 1 0.48333 1
0 1 0.48333 1
0 1 0.48333 1
0 1 0.48333 1
0 1 0.48333 1
0 1 0.48333 1
0 1 0.48333 1
0 1 0.48333 1
0 1 0.48333 1
0 1 0.48333 1
0 1 0.48333 1
0 1 0.48333 1
0 1 0.48333 1
0 1 0.48333 1
0 1 0.48333 1
0 1 0.48333 1
0 1 0.48333 1
0 1 0.48333 1
0 1 0.48333 1
0 1 0.48333 1
0 1 0.48333 1
0 1 0.48333 1
0 1 0.48333 1
0 1 0.48333 1
0 1 0.48333 1
0 1 0.48333 1
0 1 0.48333 1
0 1 0.48333 1
0 1 0.48333 1
0 1 0.48333 1
0 1 0.48333 1
0 1 0.48333 1
0 1 0.48333 1
0 1 0.48333 1
0 1 0.48333 1
0 1 0.48333 1
0 1 0.48333 1
0 1 0.48333 1
0 1 0.48333 1
0 1 0.48333 1
0 1 0.48333 1
0 1 0.48333 1
0 1 0.48333 1
0 1 0.48333 1
0 1 0.48333 1
0 1 0.48333 1
0 1 0.48333 1
0 1 0.48333 1
0 1 0.48333 1
0 1 0.48333 1
0 1 0.48333 1
0 1 0.48333 1
0 1 0.48333 1
0 1 0.48333 1
0 1 0.48333 1
0 1 0.48333 1
0 1 0.48333 1
0 1 0.48333 1
0 1 0.48333 1
0 1 0.48333 1
0 1 0.48333 1
0 1 0.48333 1
0 1 0.48333 1
0 1 0.48333 1
0 1 0.48333 1
0 1 0.48333 1
0 1 0.48333 1
0 1 0.48333 1
0 1 0.48333 1
0 1 0.48333 1
0 1 0.48333 1
0 1 0.48333 1
0 1 0.48333 1
0 1 0.48333 1
0 1 0.48333 1
0 1 0.48333 1
0 1 0.48333 1
0 1 0.48333 1
0 1 0.48333 1
0 1 0.48333 1
0 1 0.48333 1
0 1 0.48333 1
0 1 0.48333 1
0 1 0.48333 1
0 1 0.48333 1
0 1 0.48333 1
0 1 0.48333 1
0 1 0.48333 1
0 1 0.48333 1
0 1 0.48333 1
0 1 0.48333 1
0 1 0.48333 1
0 1 0.48333 1
0 1 0.48333 1
0 1 0.48333 1
0 1 0.48333 1
0 1 0.48333 1
0 1 0.48333 1
0 1 0.48333 1
0 1 0.48333 1
0 1 0.48333 1
0 1 0.48333 1
0 1 0.48333 1
0 1 0.48333 1
0 1 0.48333 1
0 1 0.48333 1
0 1 0.48333 1
0 1 0.48333 1
0 1 0.48333 1
0 1 0.48333 1
0 1 0.48333 1
0 1 0.48333 1
0 1 0.48333 1
0 1 0.48333 1
0 1 0.48333 1
0 1 0.48333 1
0 1 0.48333 1
0 1 0.48333 1
0 1 0.48333 1
0 1 0.48333 1
0 1 0.48333 1
0 1 0.48333 1
0 1 0.48333 1
0 1 0.48333 1
0 1 0.48333 1
0 1 0.48333 1
0 1 0.48333 1
0 1 0.48333 1
0 1 0.48333 1
0 1 0.48333 1
0 1 0.48333 1
0 1 0.48333 1
0 1 0.48333 1
0 1 0.48333 1
0 1 0.48333 1
0 1 0.48333 1
0 1 0.48333 1
0 1 0.48333 1
0 1 0.48333 1
0 1 0.48333 1
0 1 0.48333 1
0 1 0.48333 1
0 1 0.48333 1
0 1 0.48333 1
0 1 0.48333 1
0 1 0.48333 1
0 1 0.48333 1
0 1 0.48333 1
0 1 0.48333 1
0 1 0.48333 1
0 1 0.48333 1
0 1 0.48333 1
0 1 0.48333 1
0 1 0.48333 1
0 1 0.48333 1
0 1 0.48333 1
0 1 0.48333 1
0 1 0.48333 1
0 1 0.48333 1
0 1 0.48333 1
0 1 0.48333 1
0 1 0.48333 1
0 1 0.48333 1
0 1 0.48333 1
0 1 0.48333 1
0 1 0.48333 1
0 1 0.48333 1
0 1 0.48333 1
0 1 0.48333 1
0 1 0.48333 1
0 1 0.48333 1
0 1 0.48333 1
0 1 0.48333 1
0 1 0.48333 1
0 1 0.48333 1
0 1 0.48333 1
0 1 0.48333 1
0 1 0.48333 1
0 1 0.48333 1
0 1 0.48333 1
0 1 0.48333 1
0 1 0.48333 1
0 1 0.48333 1
0 1 0.48333 1
0 1 0.48333 1
0 1 0.48333 1
0 1 0.48333 1
0 1 0.48333 1
0 1 0.48333 1
0 1 0.48333 1
0 1 0.48333 1
0 1 0.48333 1
0 1 0.48333 1
0 1 0.48333 1
0 1 0.48333 1
0 1 0.48333 1
0 1 0.48333 1
0 1 0.48333 1
0 1 0.48333 1
0 1 0.48333 1
0 1 0.48333 1
0 1 0.48333 1
0 1 0.48333 1
0 1 0.48333 1
0 1 0.48333 1
0 1 0.48333 1
0 1 0.48333 1
0 1 0.48333 1
0 1 0.48333 1
0 1 0.48333 1
0 1 0.48333 1
0 1 0.48333 1
0 1 0.48333 1
0 1 0.48333 1
0 1 0.48333 1
0 1 0.48333 1
0 1 0.48333 1
0 1 0.48333 1
0 1 0.48333 1
0 1 0.48333 1
0 1 0.48333 1
0 1 0.48333 1
0 1 0.48333 1
0 1 0.48333 1
0 1 0.48333 1
0 1 0.48333 1
0 1 0.48333 1
0 1 0.48333 1
0 1 0.48333 1
0 1 0.48333 1
0 1 0.48333 1
0 1 0.48333 1
0 1 0.48333 1
0 1 0.48333 1
0 1 0.48333 1
0 1 0.48333 1
0 1 0.48333 1
0 1 0.48333 1
0 1 0.48333 1
0 1 0.48333 1
0 1 0.48333 1
0 1 0.48333 1
0 1 0.48333 1
0 1 0.48333 1
0 1 0.48333 1
0 1 0.48333 1
0 1 0.48333 1
0 1 0.48333 1
0 1 0.48333 1
0 1 0.48333 1
0 1 0.48333 1
0 1 0.48333 1
0 1 0.48333 1
0 1 0.48333 1
0 1 0.48333 1
0 1 0.48333 1
0 1 0.48333 1
0 1 0.48333 1
0 1 0.48333 1
0 1 0.48333 1
0 1 0.48333 1
0 1 0.48333 1
0 1 0.48333 1
0 1 0.48333 1
0 1 0.48333 1
0 1 0.48333 1
0 1 0.48333 1
0 1 0.48333 1
0 1 0.48333 1
0 1 0.48333 1
0 1 0.48333 1
0 1 0.48333 1
0 1 0.48333 1
0 1 0.48333 1
0 1 0.48333 1
0 1 0.48333 1
0 1 0.48333 1
0 1 0.48333 1
0 1 0.48333 1
0 1 0.48333 1
0 1 0.48333 1
0 1 0.48333 1
0 1 0.48333 1
0 1 0.48333 1
0 1 0.48333 1
0 1 0.48333 1
0 1 0.48333 1
0 1 0.48333 1
0 1 0.48333 1
0 1 0.48333 1
0 1 0.48333 1
0 1 0.48333 1
0 1 0.48333 1
0 1 0.48333 1
0 1 0.48333 1
0 1 0.48333 1
0 1 0.48333 1
0 1 0.48333 1
0 1 0.48333 1
0 1 0.48333 1
0 1 0.48333 1
0 1 0.48333 1
0 1 0.48333 1
0 1 0.48333 1
0 1 0.48333 1
0 1 0.48333 1
0 1 0.48333 1
0 1 0.48333 1
0 1 0.48333 1
0 1 0.48333 1
0 1 0.48333 1
0 1 0.48333 1
0 1 0.48333 1
0 1 0.48333 1
0 1 0.48333 1
0 1 0.48333 1
0 1 0.48333 1
0 1 0.48333 1
0 1 0.48333 1
0 1 0.48333 1
0 1 0.48333 1
0 1 0.48333 1
0 1 0.48333 1
0 1 0.48333 1
0 1 0.48333 1
0 1 0.48333 1
0 1 0.48333 1
0 1 0.48333 1
0 1 0.48333 1
0 1 0.48333 1
0 1 0.48333 1
0 1 0.48333 1
0 1 0.48333 1
0 1 0.48333 1
0 1 0.48333 1
0 1 0.48333 1
0 1 0.48333 1
0 1 0.48333 1
0 1 0.48333 1
0 1 0.48333 1
0 1 0.48333 1
0 1 0.48333 1
0 1 0.48333 1
0 1 0.48333 1
0 1 0.48333 1
0 1 0.48333 1
0 1 0.48333 1
0 1 0.48333 1
0 1 0.48333 1
0 1 0.48333 1
0 1 0.48333 1
0 1 0.48333 1
0 1 0.48333 1
0 1 0.48333 1
0 1 0.48333 1
0 1 0.48333 1
0 1 0.48333 1
0 1 0.48333 1
0 1 0.48333 1
0 1 0.48333 1
0 1 0.48333 1
0 1 0.48333 1
0 1 0.48333 1
0 1 0.48333 1
0 1 0.48333 1
0 1 0.48333 1
0 1 0.48333 1
0 1 0.48333 1
0 1 0.48333 1
0 1 0.48333 1
0 1 0.48333 1
0 1 0.48333 1
0 1 0.48333 1
0 1 0.48333 1
0 1 0.48333 1
0 1 0.48333 1
0 1 0.48333 1
0 1 0.48333 1
0 1 0.48333 1
0 1 0.48333 1
0 1 0.48333 1
0 1 0.48333 1
0 1 0.48333 1
0 1 0.48333 1
0 1 0.48333 1
0 1 0.48333 1
0 1 0.48333 1
0 1 0.48333 1
0 1 0.48333 1
0 1 0.48333 1
0 1 0.48333 1
0 1 0.48333 1
0 1 0.48333 1
0 1 0.48333 1
0 1 0.48333 1
0 1 0.48333 1
0 1 0.48333 1
0 1 0.48333 1
0 1 0.48333 1
0 1 0.48333 1
0 1 0.48333 1
0 1 0.48333 1
0 1 0.48333 1
0 1 0.48333 1
0 1 0.48333 1
0 1 0.48333 1
0 1 0.48333 1
0 1 0.48333 1
0 1 0.48333 1
0 1 0.48333 1
0 1 0.48333 1
0 1 0.48333 1
0 1 0.48333 1
0 1 0.48333 1
0 1 0.48333 1
0 1 0.48333 1
0 1 0.48333 1
0 1 0.48333 1
0 1 0.48333 1
0 1 0.48333 1
0 1 0.48333 1
0 1 0.48333 1
0 1 0.48333 1
0 1 0.48333 1
0 1 0.48333 1
0 1 0.48333 1
0 1 0.48333 1
0 1 0.48333 1
0 1 0.48333 1
0 1 0.48333 1
0 1 0.48333 1
0 1 0.48333 1
0 1 0.48333 1
0 1 0.48333 1
0 1 0.48333 1
0 1 0.48333 1
0 1 0.48333 1
0 1 0.48333 1
0 1 0.48333 1
0 1 0.48333 1
0 1 0.48333 1
0 1 0.48333 1

