# vtk DataFile Version 3.0
Gocad TSurf to VTK
ASCII
DATASET POLYDATA
POINTS 408 float
21595625.000 4564555.000 -46.250
21596000.000 4564562.500 -11.875
21596062.500 4564866.250 -76.875
21596250.000 4564810.000 -62.500
21595612.500 4564856.250 35.000
21595700.000 4564405.000 -23.750
21595975.000 4564237.500 97.500
21595537.500 4564487.500 -54.375
21595600.000 4564375.000 -35.625
21595500.000 4564585.000 -18.750
21595400.000 4564550.000 -15.000
21595437.500 4564728.750 25.000
21595350.000 4564665.000 20.000
21595250.000 4564760.000 62.500
21595262.500 4564601.250 15.000
21595450.000 4564420.000 -62.500
21595100.000 4564445.000 -3.750
21595400.000 4564285.000 -59.375
21595500.000 4564320.000 -47.500
21595300.000 4564240.000 -71.250
21595475.000 4564187.500 -12.500
21595475.000 4564006.250 -75.000
21595600.000 4564200.000 15.000
21595600.000 4564055.000 -35.000
21595725.000 4564103.750 5.000
21595725.000 4564021.250 -0.625
21595725.000 4564212.500 42.500
21595850.000 4564152.500 45.000
21595925.000 4563992.500 116.250
21595787.500 4563933.750 61.875
21596062.500 4564051.250 170.625
21596175.000 4564335.000 97.500
21596075.000 4563977.500 177.500
21596200.000 4564110.000 225.000
21595950.000 4563845.000 130.000
21595825.000 4563828.750 73.125
21595825.000 4563712.500 82.500
21595700.000 4563735.000 22.500
21595700.000 4563580.000 35.000
21595650.000 4563875.000 7.500
21595475.000 4563875.000 -84.375
21595600.000 4563950.000 -42.500
21595350.000 4563957.500 -115.000
21595375.000 4563757.500 -101.250
21595100.000 4564150.000 -95.000
21595000.000 4564410.000 0.000
21595100.000 4563860.000 -195.000
21595225.000 4563725.000 -168.125
21595100.000 4563650.000 -210.000
21595100.000 4563640.000 -210.000
21595325.000 4563453.750 -129.375
21595450.000 4563547.500 -78.750
21595200.000 4563360.000 -180.000
21595325.000 4563182.500 -107.500
21595200.000 4563050.000 -155.000
21595450.000 4563315.000 -60.000
21595575.000 4563447.500 -12.500
21595575.000 4563641.250 -28.125
21595125.000 4564585.000 31.250
21594900.000 4565080.000 390.000
21594975.000 4565083.750 356.875
21594937.500 4565156.250 396.875
21594975.000 4565222.500 403.750
21594900.000 4565090.000 390.000
21594937.500 4565155.000 398.750
21594975.000 4565220.000 407.500
21595012.500 4565285.000 416.250
21595027.977 4565311.832 419.862
21595012.500 4565288.750 416.250
21595027.508 4565313.270 419.753
21595027.102 4565314.539 419.656
21595031.211 4565318.066 419.677
21595350.000 4565102.500 191.250
21595056.969 4565344.250 419.571
21595096.539 4565392.836 418.922
21595103.445 4565401.887 419.017
21595144.891 4565446.633 420.293
21595151.086 4565454.262 420.414
21595500.000 4565110.000 125.000
21595375.000 4564935.000 93.750
21595224.109 4565579.008 419.280
21595236.578 4565592.566 419.657
21595550.000 4565357.500 202.500
21595700.000 4565180.000 66.250
21595403.383 4565751.121 426.379
21595625.000 4565728.750 318.750
21596000.000 4565285.000 -21.875
21595429.992 4565782.121 427.031
21595476.281 4565836.039 428.166
21595492.102 4565854.473 428.553
21595650.000 4565852.500 357.500
21596150.000 4565272.500 -72.500
21595584.344 4565961.926 430.814
21595638.438 4566025.914 432.068
21595699.117 4566095.613 433.627
21596300.000 4565390.000 -110.000
21595701.445 4566098.289 433.687
21596287.500 4565531.250 -52.500
21596487.500 4565585.000 -136.250
21595701.578 4566098.469 433.689
21595707.320 4566106.148 433.756
21595762.500 4566152.500 424.375
21596250.000 4565955.000 120.000
21595825.000 4566205.000 413.750
21595887.500 4566257.500 403.125
21595950.000 4566310.000 392.500
21596225.000 4566237.500 235.000
21596675.000 4565780.000 -162.500
21596012.500 4566362.500 381.875
21596075.000 4566415.000 371.250
21596137.500 4566467.500 360.625
21596200.000 4566520.000 350.000
21596900.000 4566010.000 -176.250
21596287.500 4566523.750 306.250
21596850.000 4566230.000 -90.000
21596237.500 4566575.000 348.125
21596275.000 4566630.000 346.250
21596312.500 4566685.000 344.375
21596350.000 4566740.000 342.500
21596550.000 4566535.000 175.000
21596387.500 4566795.000 340.625
21596425.000 4566850.000 338.750
21596812.500 4566546.250 43.750
21596462.500 4566905.000 336.875
21596500.000 4566960.000 335.000
21596962.500 4566571.250 -24.375
21596862.500 4566838.750 131.250
21597337.500 4566698.750 -170.625
21596537.500 4567005.000 336.875
21596575.000 4567050.000 338.750
21596537.500 4567005.000 336.875
21596612.500 4567095.000 340.625
21596850.000 4566935.000 175.000
21596650.000 4567140.000 342.500
21596825.000 4567127.500 262.500
21596687.500 4567185.000 344.375
21597400.000 4566720.000 -195.000
21596800.000 4567320.000 350.000
21597375.000 4566668.750 -191.250
21597325.000 4566566.250 -183.750
21597787.500 4566385.000 -385.000
21597750.000 4566413.750 -379.375
21597475.000 4566733.750 -188.125
21597925.000 4566691.250 -233.750
21597325.000 4567005.000 30.000
21597587.500 4566907.500 -107.500
21596850.000 4567340.000 356.875
21596900.000 4567360.000 363.750
21596850.000 4567340.000 356.875
21597300.000 4567100.000 105.000
21596950.000 4567380.000 370.625
21597250.000 4567290.000 255.000
21597700.000 4567020.000 -55.000
21597000.000 4567400.000 377.500
21597050.000 4567420.000 384.375
21597100.000 4567440.000 391.250
21597150.000 4567460.000 398.125
21597200.000 4567480.000 405.000
21597217.508 4567475.625 406.532
21597303.680 4567451.000 409.439
21597305.977 4567450.340 409.517
21597775.000 4567085.000 77.500
21598000.000 4566830.000 -140.000
21597403.922 4567422.355 412.821
21597409.859 4567420.926 413.426
21597506.227 4567397.754 423.238
21597508.461 4567397.215 423.465
21597812.500 4567117.500 143.750
21598075.000 4567063.750 188.750
21597604.820 4567374.043 433.277
21597702.055 4567350.660 443.178
21597800.172 4567327.066 453.168
21597804.258 4567326.086 453.584
21597925.000 4567215.000 342.500
21597900.578 4567302.922 463.392
21597999.109 4567279.227 473.425
21598225.000 4567081.250 286.250
21598001.570 4567278.609 473.679
21598002.602 4567278.352 473.786
21598300.000 4567090.000 335.000
21598262.500 4567057.500 275.625
21598225.000 4567025.000 216.250
21598350.000 4566952.500 262.500
21598300.000 4566935.000 205.000
21598400.000 4566970.000 320.000
21598487.500 4566838.750 278.125
21598425.000 4566822.500 206.250
21598500.000 4566890.000 350.000
21598662.500 4566716.250 361.250
21598625.000 4566682.500 277.500
21598700.000 4566750.000 445.000
21598725.000 4566667.500 382.500
21598675.000 4566637.500 288.750
21598775.000 4566625.000 415.625
21598850.000 4566566.250 464.375
21598850.000 4566500.000 386.250
21599000.000 4566382.500 483.750
21598800.000 4566420.000 195.000
21598650.000 4566525.000 132.500
21598925.000 4566375.000 356.875
21599075.000 4566125.000 298.125
21599150.000 4566198.750 503.125
21599300.000 4566015.000 522.500
21599450.000 4565831.250 541.875
21599225.000 4565875.000 239.375
21598900.000 4566090.000 -55.000
21599469.516 4565807.344 544.396
21599500.320 4565767.949 546.417
21599580.055 4565659.602 544.128
21599689.039 4565511.504 541.000
21599237.500 4565723.750 141.875
21599703.203 4565487.488 540.564
21598850.000 4565815.000 -195.000
21598987.500 4565618.750 -130.625
21598600.000 4565950.000 -380.000
21598625.000 4566412.500 -23.750
21598637.500 4565783.750 -444.375
21598825.000 4565677.500 -265.000
21598475.000 4566068.750 -423.750
21598537.500 4566287.500 -223.750
21598400.000 4565565.000 -397.500
21598350.000 4565891.250 -542.500
21598725.000 4565521.250 -330.000
21598500.000 4565465.000 -315.000
21598862.500 4565566.250 -266.875
21598687.500 4565393.750 -282.500
21599150.000 4565397.500 41.250
21599100.000 4565280.000 -15.000
21599412.500 4565431.250 320.625
21599809.609 4565340.543 537.495
21599487.500 4565218.750 394.375
21599525.000 4565112.500 431.250
21599740.500 4565150.230 537.740
21599732.961 4565125.984 537.746
21599746.516 4565169.602 537.736
21599762.828 4565222.113 537.724
21599777.695 4565269.953 537.714
21599791.297 4565313.727 537.704
21599722.484 4565103.496 535.923
21599698.977 4565053.090 531.837
21599696.781 4565048.371 531.454
21599672.727 4564996.781 527.272
21599667.422 4564985.398 526.350
21599637.500 4564947.500 516.875
21599600.000 4564900.000 505.000
21599500.000 4564891.250 459.375
21599062.500 4565223.750 4.375
21599537.500 4564856.250 505.000
21599475.000 4564812.500 505.000
21599400.000 4564882.500 413.750
21599412.500 4564768.750 505.000
21598912.500 4564998.750 81.875
21598950.000 4565148.750 -9.375
21599200.000 4564865.000 322.500
21598900.000 4564838.750 185.625
21599351.867 4564730.891 501.586
21599346.930 4564727.863 501.267
21599404.641 4564763.250 505.000
21599283.750 4564689.125 497.179
21599277.523 4564685.305 496.776
21599212.344 4564645.340 492.559
21599148.898 4564606.441 488.455
21599087.141 4564568.570 484.460
21599082.891 4564565.969 484.185
21598800.000 4564830.000 140.000
21599057.156 4564540.004 481.794
21598800.000 4565017.500 -3.750
21598650.000 4564890.000 0.000
21598575.000 4565166.250 -172.500
21598675.000 4564775.000 105.000
21598725.000 4564725.000 150.000
21598550.000 4564810.000 0.000
21598362.500 4564637.500 17.500
21598400.000 4564880.000 -97.500
21598325.000 4564677.500 -24.375
21598500.000 4564410.000 180.000
21597675.000 4564915.000 -241.250
21598012.500 4565146.250 -320.000
21598162.500 4564591.250 24.375
21597550.000 4564730.000 -70.000
21598337.500 4564416.250 181.875
21598175.000 4564422.500 183.750
21598012.500 4564428.750 185.625
21597887.500 4564553.750 73.125
21597850.000 4564435.000 187.500
21597687.500 4564441.250 189.375
21597612.500 4564516.250 121.875
21597525.000 4564447.500 191.250
21597475.000 4564497.500 146.250
21597462.500 4564662.500 -3.750
21597362.500 4564453.750 193.125
21597337.500 4564478.750 170.625
21597200.000 4564460.000 195.000
21597075.000 4564730.000 -20.625
21597075.000 4564416.250 198.750
21596900.000 4564591.250 63.125
21596700.000 4564930.000 -95.000
21596950.000 4564372.500 202.500
21596825.000 4564328.750 206.250
21596700.000 4564453.750 109.375
[...]
POINT_DATA 408
COLOR_SCALARS GocadColor 4
0.0980392 0.0980392 0.439216 1
0.0980392 0.0980392 0.439216 1
0.0980392 0.0980392 0.439216 1
0.0980392 0.0980392 0.439216 1
0.0980392 0.0980392 0.439216 1
0.0980392 0.0980392 0.439216 1
0.0980392 0.0980392 0.439216 1
0.0980392 0.0980392 0.439216 1
0.0980392 0.0980392 0.439216 1
0.0980392 0.0980392 0.439216 1
0.0980392 0.0980392 0.439216 1
0.0980392 0.0980392 0.439216 1
0.0980392 0.0980392 0.439216 1
0.0980392 0.0980392 0.439216 1
0.0980392 0.0980392 0.439216 1
0.0980392 0.0980392 0.439216 1
0.0980392 0.0980392 0.439216 1
0.0980392 0.0980392 0.439216 1
0.0980392 0.0980392 0.439216 1
0.0980392 0.0980392 0.439216 1
0.0980392 0.0980392 0.439216 1
0.0980392 0.0980392 0.439216 1
0.0980392 0.0980392 0.439216 1
0.0980392 0.0980392 0.439216 1
0.0980392 0.0980392 0.439216 1
0.0980392 0.0980392 0.439216 1
0.0980392 0.0980392 0.439216 1
0.0980392 0.0980392 0.439216 1
0.0980392 0.0980392 0.439216 1
0.0980392 0.0980392 0.439216 1
0.0980392 0.0980392 0.439216 1
0.0980392 0.0980392 0.439216 1
0.0980392 0.0980392 0.439216 1
0.0980392 0.0980392 0.439216 1
0.0980392 0.0980392 0.439216 1
0.0980392 0.0980392 0.439216 1
0.0980392 0.0980392 0.439216 1
0.0980392 0.0980392 0.439216 1
0.0980392 0.0980392 0.439216 1
0.0980392 0.0980392 0.439216 1
0.0980392 0.0980392 0.439216 1
0.0980392 0.0980392 0.439216 1
0.0980392 0.0980392 0.439216 1
0.0980392 0.0980392 0.439216 1
0.0980392 0.0980392 0.439216 1
0.0980392 0.0980392 0.439216 1
0.0980392 0.0980392 0.439216 1
0.0980392 0.0980392 0.439216 1
0.0980392 0.0980392 0.439216 1
0.0980392 0.0980392 0.439216 1
0.0980392 0.0980392 0.439216 1
0.0980392 0.0980392 0.439216 1
0.0980392 0.0980392 0.439216 1
0.0980392 0.0980392 0.439216 1
0.0980392 0.0980392 0.439216 1
0.0980392 0.0980392 0.439216 1
0.0980392 0.0980392 0.439216 1
0.0980392 0.0980392 0.439216 1
0.0980392 0.0980392 0.439216 1
0.0980392 0.0980392 0.439216 1
0.0980392 0.0980392 0.439216 1
0.0980392 0.0980392 0.439216 1
0.0980392 0.0980392 0.439216 1
0.0980392 0.0980392 0.439216 1
0.0980392 0.0980392 0.439216 1
0.0980392 0.0980392 0.439216 1
0.0980392 0.0980392 0.439216 1
0.0980392 0.0980392 0.439216 1
0.0980392 0.0980392 0.439216 1
0.0980392 0.0980392 0.439216 1
0.0980392 0.0980392 0.439216 1
0.0980392 0.0980392 0.439216 1
0.0980392 0.0980392 0.439216 1
0.0980392 0.0980392 0.439216 1
0.0980392 0.0980392 0.439216 1
0.0980392 0.0980392 0.439216 1
0.0980392 0.0980392 0.439216 1
0.0980392 0.0980392 0.439216 1
0.0980392 0.0980392 0.439216 1
0.0980392 0.0980392 0.439216 1
0.0980392 0.0980392 0.439216 1
0.0980392 0.0980392 0.439216 1
0.0980392 0.0980392 0.439216 1
0.0980392 0.0980392 0.439216 1
0.0980392 0.0980392 0.439216 1
0.0980392 0.0980392 0.439216 1
0.0980392 0.0980392 0.439216 1
0.0980392 0.0980392 0.439216 1
0.0980392 0.0980392 0.439216 1
0.0980392 0.0980392 0.439216 1
0.0980392 0.0980392 0.439216 1
0.0980392 0.0980392 0.439216 1
0.0980392 0.0980392 0.439216 1
0.0980392 0.0980392 0.439216 1
0.0980392 0.0980392 0.439216 1
0.0980392 0.0980392 0.439216 1
0.0980392 0.0980392 0.439216 1
0.0980392 0.0980392 0.439216 1
0.0980392 0.0980392 0.439216 1
0.0980392 0.0980392 0.439216 1
0.0980392 0.0980392 0.439216 1
0.0980392 0.0980392 0.439216 1
0.0980392 0.0980392 0.439216 1
0.0980392 0.0980392 0.439216 1
0.0980392 0.0980392 0.439216 1
0.0980392 0.0980392 0.439216 1
0.0980392 0.0980392 0.439216 1
0.0980392 0.0980392 0.439216 1
0.0980392 0.0980392 0.439216 1
0.0980392 0.0980392 0.439216 1
0.0980392 0.0980392 0.439216 1
0.0980392 0.0980392 0.439216 1
0.0980392 0.0980392 0.439216 1
0.0980392 0.0980392 0.439216 1
0.0980392 0.0980392 0.439216 1
0.0980392 0.0980392 0.439216 1
0.0980392 0.0980392 0.439216 1
0.0980392 0.0980392 0.439216 1
0.0980392 0.0980392 0.439216 1
0.0980392 0.0980392 0.439216 1
0.0980392 0.0980392 0.439216 1
0.0980392 0.0980392 0.439216 1
0.0980392 0.0980392 0.439216 1
0.0980392 0.0980392 0.439216 1
0.0980392 0.0980392 0.439216 1
0.0980392 0.0980392 0.439216 1
0.0980392 0.0980392 0.439216 1
0.0980392 0.0980392 0.439216 1
0.0980392 0.0980392 0.439216 1
0.0980392 0.0980392 0.439216 1
0.0980392 0.0980392 0.439216 1
0.0980392 0.0980392 0.439216 1
0.0980392 0.0980392 0.439216 1
0.0980392 0.0980392 0.439216 1
0.0980392 0.0980392 0.439216 1
0.0980392 0.0980392 0.439216 1
0.0980392 0.0980392 0.439216 1
0.0980392 0.0980392 0.439216 1
0.0980392 0.0980392 0.439216 1
0.0980392 0.0980392 0.439216 1
0.0980392 0.0980392 0.439216 1
0.0980392 0.0980392 0.439216 1
0.0980392 0.0980392 0.439216 1
0.0980392 0.0980392 0.439216 1
0.0980392 0.0980392 0.439216 1
0.0980392 0.0980392 0.439216 1
0.0980392 0.0980392 0.439216 1
0.0980392 0.0980392 0.439216 1
0.0980392 0.0980392 0.439216 1
0.0980392 0.0980392 0.439216 1
0.0980392 0.0980392 0.439216 1
0.0980392 0.0980392 0.439216 1
0.0980392 0.0980392 0.439216 1
0.0980392 0.0980392 0.439216 1
0.0980392 0.0980392 0.439216 1
0.0980392 0.0980392 0.439216 1
0.0980392 0.0980392 0.439216 1
0.0980392 0.0980392 0.439216 1
0.0980392 0.0980392 0.439216 1
0.0980392 0.0980392 0.439216 1
0.0980392 0.0980392 0.439216 1
0.0980392 0.0980392 0.439216 1
0.0980392 0.0980392 0.439216 1
0.0980392 0.0980392 0.439216 1
0.0980392 0.0980392 0.439216 1
0.0980392 0.0980392 0.439216 1
0.0980392 0.0980392 0.439216 1
0.0980392 0.0980392 0.439216 1
0.0980392 0.0980392 0.439216 1
0.0980392 0.0980392 0.439216 1
0.0980392 0.0980392 0.439216 1
0.0980392 0.0980392 0.439216 1
0.0980392 0.0980392 0.439216 1
0.0980392 0.0980392 0.439216 1
0.0980392 0.0980392 0.439216 1
0.0980392 0.0980392 0.439216 1
0.0980392 0.0980392 0.439216 1
0.0980392 0.0980392 0.439216 1
0.0980392 0.0980392 0.439216 1
0.0980392 0.0980392 0.439216 1
0.0980392 0.0980392 0.439216 1
0.0980392 0.0980392 0.439216 1
0.0980392 0.0980392 0.439216 1
0.0980392 0.0980392 0.439216 1
0.0980392 0.0980392 0.439216 1
0.0980392 0.0980392 0.439216 1
0.0980392 0.0980392 0.439216 1
0.0980392 0.0980392 0.439216 1
0.0980392 0.0980392 0.439216 1
0.0980392 0.0980392 0.439216 1
0.0980392 0.0980392 0.439216 1
0.0980392 0.0980392 0.439216 1
0.0980392 0.0980392 0.439216 1
0.0980392 0.0980392 0.439216 1
0.0980392 0.0980392 0.439216 1
0.0980392 0.0980392 0.439216 1
0.0980392 0.0980392 0.439216 1
0.0980392 0.0980392 0.439216 1
0.0980392 0.0980392 0.439216 1
0.0980392 0.0980392 0.439216 1
0.0980392 0.0980392 0.439216 1
0.0980392 0.0980392 0.439216 1
0.0980392 0.0980392 0.439216 1
0.0980392 0.0980392 0.439216 1
0.0980392 0.0980392 0.439216 1
0.0980392 0.0980392 0.439216 1
0.0980392 0.0980392 0.439216 1
0.0980392 0.0980392 0.439216 1
0.0980392 0.0980392 0.439216 1
0.0980392 0.0980392 0.439216 1
0.0980392 0.0980392 0.439216 1
0.0980392 0.0980392 0.439216 1
0.0980392 0.0980392 0.439216 1
0.0980392 0.0980392 0.439216 1
0.0980392 0.0980392 0.439216 1
0.0980392 0.0980392 0.439216 1
0.0980392 0.0980392 0.439216 1
0.0980392 0.0980392 0.439216 1
0.0980392 0.0980392 0.439216 1
0.0980392 0.0980392 0.439216 1
0.0980392 0.0980392 0.439216 1
0.0980392 0.0980392 0.439216 1
0.0980392 0.0980392 0.439216 1
0.0980392 0.0980392 0.439216 1
0.0980392 0.0980392 0.439216 1
0.0980392 0.0980392 0.439216 1
0.0980392 0.0980392 0.439216 1
0.0980392 0.0980392 0.439216 1
0.0980392 0.0980392 0.439216 1
0.0980392 0.0980392 0.439216 1
0.0980392 0.0980392 0.439216 1
0.0980392 0.0980392 0.439216 1
0.0980392 0.0980392 0.439216 1
0.0980392 0.0980392 0.439216 1
0.0980392 0.0980392 0.439216 1
0.0980392 0.0980392 0.439216 1
0.0980392 0.0980392 0.439216 1
0.0980392 0.0980392 0.439216 1
0.0980392 0.0980392 0.439216 1
0.0980392 0.0980392 0.439216 1
0.0980392 0.0980392 0.439216 1
0.0980392 0.0980392 0.439216 1
0.0980392 0.0980392 0.439216 1
0.0980392 0.0980392 0.439216 1
0.0980392 0.0980392 0.439216 1
0.0980392 0.0980392 0.439216 1
0.0980392 0.0980392 0.439216 1
0.0980392 0.0980392 0.439216 1
0.0980392 0.0980392 0.439216 1
0.0980392 0.0980392 0.439216 1
0.0980392 0.0980392 0.439216 1
0.0980392 0.0980392 0.439216 1
0.0980392 0.0980392 0.439216 1
0.0980392 0.0980392 0.439216 1
0.0980392 0.0980392 0.439216 1
0.0980392 0.0980392 0.439216 1
0.0980392 0.0980392 0.439216 1
0.0980392 0.0980392 0.439216 1
0.0980392 0.0980392 0.439216 1
0.0980392 0.0980392 0.439216 1
0.0980392 0.0980392 0.439216 1
0.0980392 0.0980392 0.439216 1
0.0980392 0.0980392 0.439216 1
0.0980392 0.0980392 0.439216 1
0.0980392 0.0980392 0.439216 1
0.0980392 0.0980392 0.439216 1
0.0980392 0.0980392 0.439216 1
0.0980392 0.0980392 0.439216 1
0.0980392 0.0980392 0.439216 1
0.0980392 0.0980392 0.439216 1
0.0980392 0.0980392 0.439216 1
0.0980392 0.0980392 0.439216 1
0.0980392 0.0980392 0.439216 1
0.0980392 0.0980392 0.439216 1
0.0980392 0.0980392 0.439216 1
0.0980392 0.0980392 0.439216 1
0.0980392 0.0980392 0.439216 1
0.0980392 0.0980392 0.439216 1
0.0980392 0.0980392 0.439216 1
0.0980392 0.0980392 0.439216 1
0.0980392 0.0980392 0.439216 1
0.0980392 0.0980392 0.439216 1
0.0980392 0.0980392 0.439216 1
0.0980392 0.0980392 0.439216 1
0.0980392 0.0980392 0.439216 1
0.0980392 0.0980392 0.439216 1
0.0980392 0.0980392 0.439216 1
0.0980392 0.0980392 0.439216 1
0.0980392 0.0980392 0.439216 1
0.0980392 0.0980392 0.439216 1
0.0980392 0.0980392 0.439216 1
0.0980392 0.0980392 0.439216 1
0.0980392 0.0980392 0.439216 1
0.0980392 0.0980392 0.439216 1
0.0980392 0.0980392 0.439216 1
0.0980392 0.0980392 0.439216 1
0.0980392 0.0980392 0.439216 1
0.0980392 0.0980392 0.439216 1
0.0980392 0.0980392 0.439216 1
0.0980392 0.0980392 0.439216 1
0.0980392 0.0980392 0.439216 1
0.0980392 0.0980392 0.439216 1
0.0980392 0.0980392 0.439216 1
0.0980392 0.0980392 0.439216 1
0.0980392 0.0980392 0.439216 1
0.0980392 0.0980392 0.439216 1
0.0980392 0.0980392 0.439216 1
0.0980392 0.0980392 0.439216 1
0.0980392 0.0980392 0.439216 1
0.0980392 0.0980392 0.439216 1
0.0980392 0.0980392 0.439216 1
0.0980392 0.0980392 0.439216 1
0.0980392 0.0980392 0.439216 1
0.0980392 0.0980392 0.439216 1
0.0980392 0.0980392 0.439216 1
0.0980392 0.0980392 0.439216 1
0.0980392 0.0980392 0.439216 1
0.0980392 0.0980392 0.439216 1
0.0980392 0.0980392 0.439216 1
0.0980392 0.0980392 0.439216 1
0.0980392 0.0980392 0.439216 1
0.0980392 0.0980392 0.439216 1
0.0980392 0.0980392 0.439216 1
0.0980392 0.0980392 0.439216 1
0.0980392 0.0980392 0.439216 1
0.0980392 0.0980392 0.439216 1
0.0980392 0.0980392 0.439216 1
0.0980392 0.0980392 0.439216 1
0.0980392 0.0980392 0.439216 1
0.0980392 0.0980392 0.439216 1
0.0980392 0.0980392 0.439216 1
0.0980392 0.0980392 0.439216 1
0.0980392 0.0980392 0.439216 1
0.0980392 0.0980392 0.439216 1
0.0980392 0.0980392 0.439216 1
0.0980392 0.0980392 0.439216 1
0.0980392 0.0980392 0.439216 1
0.0980392 0.0980392 0.439216 1
0.0980392 0.0980392 0.439216 1
0.0980392 0.0980392 0.439216 1
0.0980392 0.0980392 0.439216 1
0.0980392 0.0980392 0.439216 1
0.0980392 0.0980392 0.439216 1
0.0980392 0.0980392 0.439216 1
0.0980392 0.0980392 0.439216 1
0.0980392 0.0980392 0.439216 1
0.0980392 0.0980392 0.439216 1
0.0980392 0.0980392 0.439216 1
0.0980392 0.0980392 0.439216 1
0.0980392 0.0980392 0.439216 1
0.0980392 0.0980392 0.439216 1
0.0980392 0.0980392 0.439216 1
0.0980392 0.0980392 0.439216 1
0.0980392 0.0980392 0.439216 1
0.0980392 0.0980392 0.439216 1
0.0980392 0.0980392 0.439216 1
0.0980392 0.0980392 0.439216 1
0.0980392 0.0980392 0.439216 1
0.0980392 0.0980392 0.439216 1
0.0980392 0.0980392 0.439216 1
0.0980392 0.0980392 0.439216 1
0.0980392 0.0980392 0.439216 1
0.0980392 0.0980392 0.439216 1
0.0980392 0.0980392 0.439216 1
0.0980392 0.0980392 0.439216 1
0.0980392 0.0980392 0.439216 1
0.0980392 0.0980392 0.439216 1
0.0980392 0.0980392 0.439216 1
0.0980392 0.0980392 0.439216 1
0.0980392 0.0980392 0.439216 1
0.0980392 0.0980392 0.439216 1
0.0980392 0.0980392 0.439216 1
0.0980392 0.0980392 0.439216 1
0.0980392 0.0980392 0.439216 1
0.0980392 0.0980392 0.439216 1
0.0980392 0.0980392 0.439216 1
0.0980392 0.0980392 0.439216 1
0.0980392 0.0980392 0.439216 1
0.0980392 0.0980392 0.439216 1
0.0980392 0.0980392 0.439216 1
0.0980392 0.0980392 0.439216 1
0.0980392 0.0980392 0.439216 1
0.0980392 0.0980392 0.439216 1
0.0980392 0.0980392 0.439216 1
0.0980392 0.0980392 0.439216 1
0.0980392 0.0980392 0.439216 1
0.0980392 0.0980392 0.439216 1
0.0980392 0.0980392 0.439216 1
0.0980392 0.0980392 0.439216 1
0.0980392 0.0980392 0.439216 1
0.0980392 0.0980392 0.439216 1
0.0980392 0.0980392 0.439216 1
0.0980392 0.0980392 0.439216 1
0.0980392 0.0980392 0.439216 1
0.0980392 0.0980392 0.439216 1
0.0980392 0.0980392 0.439216 1
0.0980392 0.0980392 0.439216 1
0.0980392 0.0980392 0.439216 1
0.0980392 0.0980392 0.439216 1
0.0980392 0.0980392 0.439216 1
0.0980392 0.0980392 0.439216 1
0.0980392 0.0980392 0.439216 1
0.0980392 0.0980392 0.439216 1
0.0980392 0.0980392 0.439216 1
0.0980392 0.0980392 0.439216 1
0.0980392 0.0980392 0.439216 1
0.0980392 0.0980392 0.439216 1
0.0980392 0.0980392 0.439216 1

