# vtk DataFile Version 3.0
Gocad TSurf to VTK
ASCII
DATASET POLYDATA
POINTS 330 float
21615300.000 4579667.500 416.250
21615450.000 4579655.000 430.000
21615375.000 4579722.500 422.500
21615400.000 4579745.000 422.500
21615300.000 4579790.000 415.000
21615300.000 4579545.000 417.500
21615300.000 4579422.500 418.750
21615150.000 4579510.000 408.750
21615100.000 4579580.000 405.000
21615200.000 4579440.000 412.500
21615100.000 4579360.000 405.000
21615250.000 4579370.000 416.250
21615300.000 4579300.000 420.000
21615600.000 4579520.000 445.000
21615100.000 4579100.000 335.000
21615050.000 4579180.000 348.750
21615000.000 4579260.000 362.500
21614800.000 4579205.000 365.000
21614750.000 4579005.000 230.000
21614575.000 4579310.000 343.750
21614800.000 4578770.000 85.000
21614250.000 4578590.000 -70.000
21614050.000 4579070.000 180.000
21614000.000 4578030.000 -335.000
21613925.000 4578125.000 -307.500
21613700.000 4578410.000 -225.000
21614000.000 4578020.000 -335.000
21613700.000 4577900.000 -348.750
21613700.000 4578240.000 -266.250
21613700.000 4577730.000 -390.000
21613500.000 4577737.500 -442.500
21613300.000 4577310.000 -335.000
21613200.000 4577422.500 -401.250
21613300.000 4577745.000 -495.000
21612950.000 4577415.000 -495.000
21613100.000 4577535.000 -467.500
21612625.000 4576895.000 -303.750
21612650.000 4577135.000 -432.500
21612700.000 4576750.000 -210.000
21612600.000 4576620.000 -235.000
21612450.000 4576722.500 -298.750
21612350.000 4576890.000 -350.000
21611725.000 4576045.000 -640.000
21612200.000 4576760.000 -370.000
21611700.000 4575760.000 -685.000
21611250.000 4576135.000 -861.250
21611775.000 4576615.000 -550.000
21610425.000 4575460.000 -1281.250
21611100.000 4576260.000 -920.000
21610200.000 4574320.000 -1465.000
21610150.000 4574580.000 -1468.750
21610100.000 4574840.000 -1472.500
21610150.000 4574580.000 -1468.750
21610000.000 4575360.000 -1480.000
21610050.000 4575100.000 -1476.250
21610450.000 4576300.000 -1005.000
21610800.000 4576620.000 -797.500
21609950.000 4575605.000 -1382.500
21609900.000 4575850.000 -1285.000
21609950.000 4575605.000 -1382.500
21610125.000 4576320.000 -1047.500
21609850.000 4576095.000 -1187.500
21610300.000 4576480.000 -943.750
21609800.000 4576340.000 -1090.000
21612600.000 4578330.000 -365.000
21611250.000 4577745.000 -782.500
21612450.000 4578005.000 -396.250
21612600.000 4578127.500 -437.500
21612600.000 4577925.000 -510.000
21613150.000 4578370.000 -295.000
21612825.000 4577902.500 -541.250
21613600.000 4579010.000 55.000
21612800.000 4578577.500 -270.000
21613200.000 4579072.500 -80.000
21612450.000 4578480.000 -427.500
21612250.000 4578795.000 -472.500
21609900.000 4577160.000 -1200.000
21610275.000 4577610.000 -1050.000
21609875.000 4576955.000 -1172.500
21609850.000 4576750.000 -1145.000
21609825.000 4576545.000 -1117.500
21611100.000 4579057.500 -707.500
21609850.000 4577420.000 -1133.750
21609800.000 4577680.000 -1067.500
21609750.000 4577940.000 -1001.250
21609700.000 4578200.000 -935.000
21609825.000 4578487.500 -958.750
21610800.000 4579155.000 -815.000
21609700.000 4578442.500 -1015.000
21609700.000 4578685.000 -1095.000
21609950.000 4578775.000 -982.500
21609700.000 4578927.500 -1175.000
21610075.000 4579062.500 -1006.250
21610500.000 4579252.500 -922.500
21609700.000 4579170.000 -1255.000
21610200.000 4579350.000 -1030.000
21609700.000 4579385.000 -1223.750
21610075.000 4579520.000 -1055.000
21610250.000 4579555.000 -985.000
21609700.000 4579600.000 -1192.500
21609950.000 4579690.000 -1080.000
21609700.000 4579815.000 -1161.250
21609825.000 4579860.000 -1105.000
21609700.000 4580030.000 -1130.000
21610350.000 4579965.000 -895.000
21609750.000 4580255.000 -1095.000
21610275.000 4580360.000 -885.000
21610800.000 4580400.000 -690.000
21609800.000 4580480.000 -1060.000
21609850.000 4580705.000 -1025.000
21609900.000 4580930.000 -990.000
21611475.000 4581187.500 -418.750
21609900.000 4581067.500 -1003.750
21610950.000 4581285.000 -627.500
21612375.000 4581562.500 -105.000
21609900.000 4581205.000 -1017.500
21609900.000 4581342.500 -1031.250
21609900.000 4581480.000 -1045.000
21611950.000 4581787.500 -325.000
21610000.000 4581607.500 -1056.250
21610100.000 4581735.000 -1067.500
21609925.000 4581595.000 -1097.500
21609950.000 4581710.000 -1150.000
21609975.000 4581825.000 -1202.500
21610000.000 4581940.000 -1255.000
21610225.000 4582055.000 -1152.500
21610000.000 4582017.500 -1276.250
21610150.000 4582120.000 -1215.000
21611000.000 4582460.000 -765.000
21610000.000 4582095.000 -1297.500
21610000.000 4582172.500 -1318.750
21610000.000 4582250.000 -1340.000
21610200.000 4582445.000 -1395.000
21610950.000 4582602.500 -963.750
21610000.000 4582405.000 -1560.000
21610000.000 4582560.000 -1780.000
21610000.000 4582715.000 -2000.000
21610600.000 4582835.000 -1505.000
21610000.000 4582870.000 -2220.000
21610800.000 4583030.000 -1560.000
21610650.000 4583190.000 -1902.500
21611300.000 4583560.000 -1520.000
21610125.000 4582990.000 -2226.250
21610250.000 4583110.000 -2232.500
21610375.000 4583230.000 -2238.750
21610500.000 4583350.000 -2245.000
21610625.000 4583500.000 -2112.500
21611150.000 4583755.000 -1617.500
21611350.000 4583697.500 -1436.250
21610750.000 4583650.000 -1980.000
21610875.000 4583800.000 -1847.500
21611000.000 4583950.000 -1715.000
21611500.000 4584110.000 -1185.000
21612400.000 4584095.000 -410.000
21613154.930 4584571.547 387.391
21613161.930 4584546.609 385.943
21613150.914 4584585.852 388.222
21613199.039 4584458.195 391.457
21613237.047 4584367.641 397.106
21613245.094 4584338.586 395.326
21613262.023 4584277.469 391.582
21613275.000 4584210.000 382.500
21613300.000 4584080.000 365.000
21613262.023 4584277.469 391.582
21613275.000 4584210.000 382.500
21612250.000 4583550.000 -522.500
21613286.531 4584007.273 379.814
21613109.820 4583540.953 380.312
21613089.594 4583516.539 381.382
21613157.328 4583666.328 380.178
21613207.602 4583798.977 380.037
21613260.867 4583939.555 379.887
21613038.984 4583460.961 384.248
21612650.000 4583270.000 165.000
21613082.289 4583117.539 368.136
21613082.500 4583110.758 367.488
21613084.797 4583035.688 360.316
21613085.211 4583022.109 359.019
21613103.000 4582890.156 353.413
21613106.703 4582867.172 352.416
21612100.000 4582405.000 -215.000
21613113.781 4582823.336 350.517
21613129.367 4582746.563 348.814
21613154.922 4582620.781 346.025
21613181.766 4582488.594 343.094
21613200.000 4582398.828 341.103
21613200.000 4582350.000 335.000
21613025.000 4582192.500 233.750
21613207.188 4582309.742 338.954
21613196.023 4582012.922 331.234
21613193.500 4581945.875 329.491
21612850.000 4581450.000 160.000
21613173.055 4581740.023 323.934
21613171.477 4581692.891 324.309
21613126.258 4581402.602 325.691
21613119.617 4581365.523 325.365
21613100.195 4581256.992 324.412
21612275.000 4580995.000 -87.500
21613070.445 4581154.086 323.123
21613128.313 4580946.242 324.529
21613126.617 4580948.383 324.477
21613125.750 4580939.375 324.423
21613140.758 4580901.555 324.831
21613100.000 4580710.000 280.000
21611800.000 4580225.000 -312.500
21613140.758 4580901.555 324.831
21613125.000 4580827.500 307.500
21613140.758 4580901.555 324.831
21613150.000 4580495.000 252.500
21613200.000 4580280.000 225.000
21613175.000 4580387.500 238.750
21610675.000 4579335.000 -877.500
21612925.000 4580032.500 63.750
21611625.000 4579305.000 -572.500
21613450.000 4580160.000 217.500
21613575.000 4580100.000 213.750
21613450.000 4580160.000 217.500
21612750.000 4579305.000 -202.500
21613700.000 4580040.000 210.000
21613475.000 4579500.000 63.750
21614075.000 4579882.500 378.750
21614200.000 4579830.000 435.000
21614050.000 4579625.000 340.000
21614325.000 4579832.500 441.250
21613750.000 4579215.000 150.000
21614700.000 4579840.000 460.000
21614800.000 4579850.000 460.000
21614725.000 4579670.000 421.250
21614825.000 4579742.500 442.500
21614850.000 4579635.000 425.000
21614875.000 4579782.500 446.250
21614800.000 4579775.000 446.250
21614950.000 4579715.000 432.500
21615000.000 4579815.000 437.500
21615025.000 4579647.500 418.750
21614875.000 4579527.500 407.500
21614750.000 4579545.000 417.500
21614725.000 4579392.500 396.250
21615000.000 4579390.000 397.500
21615150.000 4579802.500 426.250
21614850.000 4579827.500 448.750
21614575.000 4579837.500 453.750
21614575.000 4579837.500 453.750
21614450.000 4579835.000 447.500
21614325.000 4579832.500 441.250
21613286.531 4584007.273 379.814
21612900.000 4577760.000 -600.000
21613000.000 4577647.500 -533.750
21612775.000 4577467.500 -575.000
21612600.000 4577520.000 -655.000
21612625.000 4577327.500 -543.750
21612400.000 4577330.000 -585.000
21612150.000 4577355.000 -458.750
21611800.000 4576900.000 -505.000
21612450.000 4577580.000 -530.000
21612300.000 4577680.000 -427.500
21612500.000 4577830.000 -475.000
21611300.000 4576760.000 -651.250
21612000.000 4576830.000 -437.500
21612600.000 4577722.500 -582.500
21615600.000 4579655.000 437.500
21615500.000 4579700.000 430.000
21615700.000 4579610.000 445.000
21610250.000 4574027.500 -1521.250
21610200.000 4574320.000 -1465.000
21610350.000 4574137.500 -1475.000
21610600.000 4574432.500 -1332.500
21610500.000 4573955.000 -1485.000
21610300.000 4573735.000 -1577.500
21610350.000 4573442.500 -1633.750
21610875.000 4573370.000 -1415.000
21611400.000 4574657.500 -1067.500
21610400.000 4573150.000 -1690.000
21610575.000 4573040.000 -1553.750
21610425.000 4572845.000 -1637.500
21610950.000 4573150.000 -1325.000
21611050.000 4573595.000 -1306.250
21610750.000 4572930.000 -1417.500
21610925.000 4572820.000 -1281.250
21611100.000 4572710.000 -1145.000
21610450.000 4572540.000 -1585.000
21610475.000 4572235.000 -1532.500
21610500.000 4571930.000 -1480.000
21610775.000 4572015.000 -1322.500
21611225.000 4572600.000 -1071.250
21610575.000 4571755.000 -1445.000
21610650.000 4571580.000 -1410.000
21610500.000 4571657.500 -1493.750
21610500.000 4571385.000 -1507.500
21610500.000 4571112.500 -1521.250
21610800.000 4571230.000 -1340.000
21611325.000 4572185.000 -1007.500
21610500.000 4570840.000 -1535.000
21611600.000 4572270.000 -850.000
21611475.000 4572372.500 -923.750
21611600.000 4572260.000 -850.000
21611650.000 4572597.500 -815.000
21611650.000 4572597.500 -815.000
21611700.000 4572935.000 -780.000
21611750.000 4573272.500 -745.000
21611800.000 4573610.000 -710.000
21611550.000 4573605.000 -908.750
21611800.000 4574190.000 -822.500
21611800.000 4574480.000 -878.750
21611800.000 4574770.000 -935.000
21611775.000 4575017.500 -872.500
21612175.000 4575405.000 -785.000
21612250.000 4575760.000 -572.500
21612750.000 4576250.000 -662.500
21612750.000 4575957.500 -590.000
21613450.000 4576935.000 -300.000
21613225.000 4576990.000 -526.250
21613700.000 4577145.000 -245.000
21614650.000 4578332.500 100.000
21614050.000 4577770.000 -170.000
21614725.000 4578400.000 100.000
21615600.000 4579520.000 445.000
21615700.000 4579610.000 445.000
21615300.000 4579300.000 420.000
21615100.000 4579100.000 335.000
21614800.000 4578770.000 85.000
21614000.000 4578030.000 -335.000
21614000.000 4578020.000 -335.000
21613700.000 4577730.000 -390.000
21613300.000 4577310.000 -335.000
21612925.000 4576675.000 -485.000
21612700.000 4576750.000 -210.000
21612475.000 4576255.000 -391.250
21612600.000 4576620.000 -235.000
21611700.000 4575760.000 -685.000

POLYGONS 487 1948
3 21 22 25
3 161 164 163
3 71 224 73
3 229 235 234
3 151 147 148
3 106 104 107
3 79 80 65
3 169 170 165
3 52 49 50
3 190 189 187
3 199 197 111
3 92 91 90
3 106 107 111
3 131 130 127
3 43 42 40
3 46 43 258
3 218 217 219
3 129 126 127
3 11 9 10
3 93 87 211
3 55 60 58
3 137 132 133
3 260 261 1
3 170 171 165
3 41 43 40
3 16 15 10
3 95 94 92
3 139 138 137
3 124 120 125
3 251 41 37
3 228 229 232
3 192 190 191
3 104 98 204
3 175 173 128
3 196 195 191
3 66 56 255
3 83 82 77
3 77 75 81
3 139 137 133
3 138 136 137
3 59 53 57
3 13 260 1
3 252 251 254
3 90 86 87
3 230 231 226
3 226 71 22
3 95 93 211
3 120 122 119
3 64 71 72
3 214 212 215
3 132 128 133
3 10 9 7
3 110 109 106
3 220 219 221
3 116 115 113
3 94 91 92
3 173 139 133
3 148 141 153
3 143 142 140
3 253 252 255
3 194 193 191
3 198 196 197
3 85 84 81
3 41 40 36
3 162 161 153
3 233 234 239
3 229 234 232
3 259 249 246
3 27 29 26
3 12 11 10
3 25 28 24
3 6 12 13
3 243 222 241
3 72 71 73
3 202 107 203
3 152 151 148
3 22 21 18
3 11 6 9
3 125 120 118
3 68 67 66
3 60 63 61
3 117 113 118
3 243 241 242
3 34 35 247
3 106 105 104
3 60 55 62
3 244 223 243
3 144 143 140
3 69 64 67
3 167 165 139
3 219 224 222
3 218 215 217
3 131 128 132
3 15 16 17
3 65 74 75
3 18 17 19
3 64 62 66
3 228 230 226
3 37 41 36
3 30 31 29
3 110 106 111
3 189 188 187
3 100 97 98
3 107 104 204
3 33 30 28
3 37 36 34
3 214 216 209
3 205 202 203
3 256 259 68
3 217 73 219
3 76 78 65
3 15 14 10
3 145 141 146
3 86 81 87
3 235 237 238
3 56 257 255
3 239 234 8
3 51 47 53
3 247 35 33
3 118 114 187
3 251 252 41
3 142 138 140
3 32 35 34
3 0 4 8
3 47 48 53
3 240 231 230
3 145 144 140
3 98 95 204
3 179 178 128
3 225 224 226
3 34 247 248
3 154 152 153
3 203 204 208
3 195 194 191
3 10 7 238
3 118 113 114
3 14 17 18
3 0 5 1
3 71 226 224
3 253 258 41
3 154 156 152
3 151 150 147
3 2 3 4
3 50 49 47
3 6 5 9
3 27 24 28
3 214 215 216
3 149 146 147
3 157 155 153
3 259 246 70
3 31 32 34
3 95 209 204
3 141 140 139
3 135 134 132
3 155 154 153
3 160 153 161
3 19 227 22
3 149 147 150
3 105 103 104
3 236 235 229
3 174 172 173
3 43 46 42
3 68 259 70
3 152 148 153
3 153 165 162
3 201 200 107
3 246 247 33
3 39 38 36
3 16 238 17
3 78 79 65
3 20 14 18
3 26 23 24
3 200 111 107
3 118 186 180
3 184 183 180
3 113 111 114
3 0 2 4
3 193 192 191
3 127 125 128
3 73 217 75
3 171 166 165
3 109 108 106
3 236 237 235
3 22 71 25
3 91 89 90
3 80 63 65
3 68 66 256
3 250 249 251
3 25 246 33
3 141 148 147
3 27 26 24
3 222 224 225
3 99 100 101
3 9 5 7
3 141 145 140
3 19 237 227
3 62 55 56
3 112 110 111
3 177 176 128
3 8 235 238
3 231 225 226
3 246 25 69
3 136 135 132
3 161 162 164
3 187 186 118
3 70 69 67
3 5 0 7
3 220 218 219
3 0 1 2
3 235 8 234
3 32 31 30
3 237 17 238
3 40 39 36
3 118 180 125
3 217 213 75
3 248 246 249
3 30 29 27
3 137 136 132
3 5 6 1
3 165 166 162
3 241 222 225
3 14 15 17
3 122 121 119
3 200 199 111
3 46 258 253
3 94 95 96
3 95 92 93
3 111 197 114
3 165 141 139
3 211 87 213
3 239 8 4
3 112 111 113
3 65 64 74
3 228 226 227
3 97 95 98
3 19 22 18
3 231 240 225
3 238 16 10
3 14 12 10
3 57 55 58
3 254 249 259
3 179 128 180
3 181 179 180
3 63 64 65
3 24 23 21
3 36 31 34
3 2 1 3
3 84 77 81
3 257 253 255
3 190 187 191
3 66 255 256
3 237 236 227
3 260 13 262
3 96 97 99
3 212 211 213
3 199 198 197
3 233 232 234
3 120 119 118
3 47 44 45
3 117 116 113
3 204 209 208
3 35 32 33
3 51 53 54
3 128 125 180
3 6 13 1
3 21 25 24
3 42 44 39
3 166 245 162
3 3 1 261
3 58 59 57
3 256 254 259
3 74 73 75
3 212 213 215
3 99 97 100
3 205 206 207
3 223 221 222
3 103 102 104
3 119 117 118
3 153 141 165
3 252 253 41
3 138 139 140
3 236 229 227
3 86 85 81
3 88 85 86
3 209 211 212
3 105 106 108
3 202 201 107
3 214 209 212
3 241 225 242
3 38 31 36
3 44 42 45
3 203 107 204
3 250 34 248
3 230 232 233
3 37 250 251
3 90 87 93
3 64 66 67
3 197 191 114
3 84 83 77
3 255 254 256
3 158 157 153
3 71 64 69
3 188 186 187
3 28 25 33
3 87 81 213
3 243 223 222
3 104 102 98
3 57 53 55
3 101 100 102
3 7 0 8
3 219 222 221
3 64 72 74
3 45 46 48
3 146 141 147
3 46 45 42
3 208 209 210
3 92 90 93
3 67 68 70
3 62 56 66
3 30 27 28
3 238 7 8
3 187 114 191
3 124 123 120
3 205 203 206
3 71 69 25
3 209 95 211
3 23 20 21
3 176 175 128
3 62 64 63
3 175 174 173
3 168 167 139
3 102 100 98
3 160 161 163
3 33 32 30
3 250 37 34
3 258 43 41
3 51 52 50
3 167 169 165
3 257 48 253
3 70 246 69
3 130 129 127
3 196 191 197
3 215 213 217
3 237 19 17
3 60 61 58
3 89 88 86
3 248 247 246
3 178 177 128
3 47 45 48
3 121 117 119
3 172 168 139
3 75 213 81
3 134 131 132
3 219 73 224
3 250 248 249
3 49 44 47
3 172 139 173
3 77 76 75
3 103 101 102
3 228 232 230
3 159 158 153
3 11 12 6
3 182 181 180
3 126 125 127
3 221 223 244
3 240 230 233
3 254 251 249
3 60 62 63
3 48 56 55
3 227 226 22
3 76 65 75
3 131 127 128
3 229 228 227
3 90 89 86
3 255 252 254
3 115 112 113
3 51 50 47
3 53 48 55
3 48 257 56
3 74 72 73
3 133 128 173
3 160 159 153
3 184 180 185
3 96 95 97
3 46 253 48
3 183 182 180
3 42 39 40
3 82 76 77
3 21 20 18
3 123 122 120
3 126 124 125
3 180 186 185
3 304 306 308
3 271 266 305
3 327 326 325
3 291 290 286
3 269 267 270
3 269 268 267
3 319 318 313
3 275 277 273
3 281 279 282
3 320 319 313
3 302 301 276
3 276 275 270
3 310 309 308
3 279 300 299
3 266 267 265
3 316 317 315
3 325 311 308
3 266 329 305
3 301 300 279
3 329 327 307
3 324 323 311
3 302 303 300
3 279 278 275
3 314 320 313
3 266 265 264
3 302 304 303
3 273 277 274
3 276 304 302
3 278 277 275
3 310 314 313
3 294 295 293
3 290 289 286
3 271 304 270
3 263 267 268
3 296 297 295
3 299 298 284
3 326 324 325
3 304 305 306
3 287 285 286
3 280 278 281
3 285 283 286
3 285 282 283
3 325 324 311
3 304 271 305
3 263 264 265
3 296 294 284
3 277 278 280
3 294 291 284
3 287 282 285
3 301 279 275
3 306 307 308
3 266 264 329
3 294 296 295
3 276 301 275
3 273 274 272
3 266 271 267
3 314 322 321
3 289 290 292
3 312 310 313
3 328 326 327
3 327 325 308
3 270 273 272
3 312 309 310
3 322 314 311
3 311 310 308
3 272 269 270
3 311 314 310
3 313 315 312
3 304 276 270
3 298 296 284
3 267 263 265
3 275 273 270
3 301 302 300
3 329 307 305
3 274 277 280
3 278 279 281
3 329 328 327
3 307 306 305
3 323 322 311
3 287 286 288
3 283 279 284
3 289 288 286
3 321 320 314
3 267 271 270
3 313 316 315
3 318 316 313
3 284 279 299
3 291 293 290
3 283 282 279
3 296 298 297
3 283 284 291
3 286 283 291
3 307 327 308
3 293 291 294
3 309 304 308

POINT_DATA 330
COLOR_SCALARS GocadColor 4
0.819608 0.698116 0.549615 1
0.819608 0.698116 0.549615 1
0.819608 0.698116 0.549615 1
0.819608 0.698116 0.549615 1
0.819608 0.698116 0.549615 1
0.819608 0.698116 0.549615 1
0.819608 0.698116 0.549615 1
0.819608 0.698116 0.549615 1
0.819608 0.698116 0.549615 1
0.819608 0.698116 0.549615 1
0.819608 0.698116 0.549615 1
0.819608 0.698116 0.549615 1
0.819608 0.698116 0.549615 1
0.819608 0.698116 0.549615 1
0.819608 0.698116 0.549615 1
0.819608 0.698116 0.549615 1
0.819608 0.698116 0.549615 1
0.819608 0.698116 0.549615 1
0.819608 0.698116 0.549615 1
0.819608 0.698116 0.549615 1
0.819608 0.698116 0.549615 1
0.819608 0.698116 0.549615 1
0.819608 0.698116 0.549615 1
0.819608 0.698116 0.549615 1
0.819608 0.698116 0.549615 1
0.819608 0.698116 0.549615 1
0.819608 0.698116 0.549615 1
0.819608 0.698116 0.549615 1
0.819608 0.698116 0.549615 1
0.819608 0.698116 0.549615 1
0.819608 0.698116 0.549615 1
0.819608 0.698116 0.549615 1
0.819608 0.698116 0.549615 1
0.819608 0.698116 0.549615 1
0.819608 0.698116 0.549615 1
0.819608 0.698116 0.549615 1
0.819608 0.698116 0.549615 1
0.819608 0.698116 0.549615 1
0.819608 0.698116 0.549615 1
0.819608 0.698116 0.549615 1
0.819608 0.698116 0.549615 1
0.819608 0.698116 0.549615 1
0.819608 0.698116 0.549615 1
0.819608 0.698116 0.549615 1
0.819608 0.698116 0.549615 1
0.819608 0.698116 0.549615 1
0.819608 0.698116 0.549615 1
0.819608 0.698116 0.549615 1
0.819608 0.698116 0.549615 1
0.819608 0.698116 0.549615 1
0.819608 0.698116 0.549615 1
0.819608 0.698116 0.549615 1
0.819608 0.698116 0.549615 1
0.819608 0.698116 0.549615 1
0.819608 0.698116 0.549615 1
0.819608 0.698116 0.549615 1
0.819608 0.698116 0.549615 1
0.819608 0.698116 0.549615 1
0.819608 0.698116 0.549615 1
0.819608 0.698116 0.549615 1
0.819608 0.698116 0.549615 1
0.819608 0.698116 0.549615 1
0.819608 0.698116 0.549615 1
0.819608 0.698116 0.549615 1
0.819608 0.698116 0.549615 1
0.819608 0.698116 0.549615 1
0.819608 0.698116 0.549615 1
0.819608 0.698116 0.549615 1
0.819608 0.698116 0.549615 1
0.819608 0.698116 0.549615 1
0.819608 0.698116 0.549615 1
0.819608 0.698116 0.549615 1
0.819608 0.698116 0.549615 1
0.819608 0.698116 0.549615 1
0.819608 0.698116 0.549615 1
0.819608 0.698116 0.549615 1
0.819608 0.698116 0.549615 1
0.819608 0.698116 0.549615 1
0.819608 0.698116 0.549615 1
0.819608 0.698116 0.549615 1
0.819608 0.698116 0.549615 1
0.819608 0.698116 0.549615 1
0.819608 0.698116 0.549615 1
0.819608 0.698116 0.549615 1
0.819608 0.698116 0.549615 1
0.819608 0.698116 0.549615 1
0.819608 0.698116 0.549615 1
0.819608 0.698116 0.549615 1
0.819608 0.698116 0.549615 1
0.819608 0.698116 0.549615 1
0.819608 0.698116 0.549615 1
0.819608 0.698116 0.549615 1
0.819608 0.698116 0.549615 1
0.819608 0.698116 0.549615 1
0.819608 0.698116 0.549615 1
0.819608 0.698116 0.549615 1
0.819608 0.698116 0.549615 1
0.819608 0.698116 0.549615 1
0.819608 0.698116 0.549615 1
0.819608 0.698116 0.549615 1
0.819608 0.698116 0.549615 1
0.819608 0.698116 0.549615 1
0.819608 0.698116 0.549615 1
0.819608 0.698116 0.549615 1
0.819608 0.698116 0.549615 1
0.819608 0.698116 0.549615 1
0.819608 0.698116 0.549615 1
0.819608 0.698116 0.549615 1
0.819608 0.698116 0.549615 1
0.819608 0.698116 0.549615 1
0.819608 0.698116 0.549615 1
0.819608 0.698116 0.549615 1
0.819608 0.698116 0.549615 1
0.819608 0.698116 0.549615 1
0.819608 0.698116 0.549615 1
0.819608 0.698116 0.549615 1
0.819608 0.698116 0.549615 1
0.819608 0.698116 0.549615 1
0.819608 0.698116 0.549615 1
0.819608 0.698116 0.549615 1
0.819608 0.698116 0.549615 1
0.819608 0.698116 0.549615 1
0.819608 0.698116 0.549615 1
0.819608 0.698116 0.549615 1
0.819608 0.698116 0.549615 1
0.819608 0.698116 0.549615 1
0.819608 0.698116 0.549615 1
0.819608 0.698116 0.549615 1
0.819608 0.698116 0.549615 1
0.819608 0.698116 0.549615 1
0.819608 0.698116 0.549615 1
0.819608 0.698116 0.549615 1
0.819608 0.698116 0.549615 1
0.819608 0.698116 0.549615 1
0.819608 0.698116 0.549615 1
0.819608 0.698116 0.549615 1
0.819608 0.698116 0.549615 1
0.819608 0.698116 0.549615 1
0.819608 0.698116 0.549615 1
0.819608 0.698116 0.549615 1
0.819608 0.698116 0.549615 1
0.819608 0.698116 0.549615 1
0.819608 0.698116 0.549615 1
0.819608 0.698116 0.549615 1
0.819608 0.698116 0.549615 1
0.819608 0.698116 0.549615 1
0.819608 0.698116 0.549615 1
0.819608 0.698116 0.549615 1
0.819608 0.698116 0.549615 1
0.819608 0.698116 0.549615 1
0.819608 0.698116 0.549615 1
0.819608 0.698116 0.549615 1
0.819608 0.698116 0.549615 1
0.819608 0.698116 0.549615 1
0.819608 0.698116 0.549615 1
0.819608 0.698116 0.549615 1
0.819608 0.698116 0.549615 1
0.819608 0.698116 0.549615 1
0.819608 0.698116 0.549615 1
0.819608 0.698116 0.549615 1
0.819608 0.698116 0.549615 1
0.819608 0.698116 0.549615 1
0.819608 0.698116 0.549615 1
0.819608 0.698116 0.549615 1
0.819608 0.698116 0.549615 1
0.819608 0.698116 0.549615 1
0.819608 0.698116 0.549615 1
0.819608 0.698116 0.549615 1
0.819608 0.698116 0.549615 1
0.819608 0.698116 0.549615 1
0.819608 0.698116 0.549615 1
0.819608 0.698116 0.549615 1
0.819608 0.698116 0.549615 1
0.819608 0.698116 0.549615 1
0.819608 0.698116 0.549615 1
0.819608 0.698116 0.549615 1
0.819608 0.698116 0.549615 1
0.819608 0.698116 0.549615 1
0.819608 0.698116 0.549615 1
0.819608 0.698116 0.549615 1
0.819608 0.698116 0.549615 1
0.819608 0.698116 0.549615 1
0.819608 0.698116 0.549615 1
0.819608 0.698116 0.549615 1
0.819608 0.698116 0.549615 1
0.819608 0.698116 0.549615 1
0.819608 0.698116 0.549615 1
0.819608 0.698116 0.549615 1
0.819608 0.698116 0.549615 1
0.819608 0.698116 0.549615 1
0.819608 0.698116 0.549615 1
0.819608 0.698116 0.549615 1
0.819608 0.698116 0.549615 1
0.819608 0.698116 0.549615 1
0.819608 0.698116 0.549615 1
0.819608 0.698116 0.549615 1
0.819608 0.698116 0.549615 1
0.819608 0.698116 0.549615 1
0.819608 0.698116 0.549615 1
0.819608 0.698116 0.549615 1
0.819608 0.698116 0.549615 1
0.819608 0.698116 0.549615 1
0.819608 0.698116 0.549615 1
0.819608 0.698116 0.549615 1
0.819608 0.698116 0.549615 1
0.819608 0.698116 0.549615 1
0.819608 0.698116 0.549615 1
0.819608 0.698116 0.549615 1
0.819608 0.698116 0.549615 1
0.819608 0.698116 0.549615 1
0.819608 0.698116 0.549615 1
0.819608 0.698116 0.549615 1
0.819608 0.698116 0.549615 1
0.819608 0.698116 0.549615 1
0.819608 0.698116 0.549615 1
0.819608 0.698116 0.549615 1
0.819608 0.698116 0.549615 1
0.819608 0.698116 0.549615 1
0.819608 0.698116 0.549615 1
0.819608 0.698116 0.549615 1
0.819608 0.698116 0.549615 1
0.819608 0.698116 0.549615 1
0.819608 0.698116 0.549615 1
0.819608 0.698116 0.549615 1
0.819608 0.698116 0.549615 1
0.819608 0.698116 0.549615 1
0.819608 0.698116 0.549615 1
0.819608 0.698116 0.549615 1
0.819608 0.698116 0.549615 1
0.819608 0.698116 0.549615 1
0.819608 0.698116 0.549615 1
0.819608 0.698116 0.549615 1
0.819608 0.698116 0.549615 1
0.819608 0.698116 0.549615 1
0.819608 0.698116 0.549615 1
0.819608 0.698116 0.549615 1
0.819608 0.698116 0.549615 1
0.819608 0.698116 0.549615 1
0.819608 0.698116 0.549615 1
0.819608 0.698116 0.549615 1
0.819608 0.698116 0.549615 1
0.819608 0.698116 0.549615 1
0.819608 0.698116 0.549615 1
0.819608 0.698116 0.549615 1
0.819608 0.698116 0.549615 1
0.819608 0.698116 0.549615 1
0.819608 0.698116 0.549615 1
0.819608 0.698116 0.549615 1
0.819608 0.698116 0.549615 1
0.819608 0.698116 0.549615 1
0.819608 0.698116 0.549615 1
0.819608 0.698116 0.549615 1
0.819608 0.698116 0.549615 1
0.819608 0.698116 0.549615 1
0.819608 0.698116 0.549615 1
0.819608 0.698116 0.549615 1
0.819608 0.698116 0.549615 1
0.819608 0.698116 0.549615 1
0.819608 0.698116 0.549615 1
0.819608 0.698116 0.549615 1
0.819608 0.698116 0.549615 1
0.819608 0.698116 0.549615 1
0.819608 0.698116 0.549615 1
0.819608 0.698116 0.549615 1
0.819608 0.698116 0.549615 1
0.819608 0.698116 0.549615 1
0.819608 0.698116 0.549615 1
0.819608 0.698116 0.549615 1
0.819608 0.698116 0.549615 1
0.819608 0.698116 0.549615 1
0.819608 0.698116 0.549615 1
0.819608 0.698116 0.549615 1
0.819608 0.698116 0.549615 1
0.819608 0.698116 0.549615 1
0.819608 0.698116 0.549615 1
0.819608 0.698116 0.549615 1
0.819608 0.698116 0.549615 1
0.819608 0.698116 0.549615 1
0.819608 0.698116 0.549615 1
0.819608 0.698116 0.549615 1
0.819608 0.698116 0.549615 1
0.819608 0.698116 0.549615 1
0.819608 0.698116 0.549615 1
0.819608 0.698116 0.549615 1
0.819608 0.698116 0.549615 1
0.819608 0.698116 0.549615 1
0.819608 0.698116 0.549615 1
0.819608 0.698116 0.549615 1
0.819608 0.698116 0.549615 1
0.819608 0.698116 0.549615 1
0.819608 0.698116 0.549615 1
0.819608 0.698116 0.549615 1
0.819608 0.698116 0.549615 1
0.819608 0.698116 0.549615 1
0.819608 0.698116 0.549615 1
0.819608 0.698116 0.549615 1
0.819608 0.698116 0.549615 1
0.819608 0.698116 0.549615 1
0.819608 0.698116 0.549615 1
0.819608 0.698116 0.549615 1
0.819608 0.698116 0.549615 1
0.819608 0.698116 0.549615 1
0.819608 0.698116 0.549615 1
0.819608 0.698116 0.549615 1
0.819608 0.698116 0.549615 1
0.819608 0.698116 0.549615 1
0.819608 0.698116 0.549615 1
0.819608 0.698116 0.549615 1
0.819608 0.698116 0.549615 1
0.819608 0.698116 0.549615 1
0.819608 0.698116 0.549615 1
0.819608 0.698116 0.549615 1
0.819608 0.698116 0.549615 1
0.819608 0.698116 0.549615 1
0.819608 0.698116 0.549615 1
0.819608 0.698116 0.549615 1
0.819608 0.698116 0.549615 1
0.819608 0.698116 0.549615 1
0.819608 0.698116 0.549615 1
0.819608 0.698116 0.549615 1
0.819608 0.698116 0.549615 1
0.819608 0.698116 0.549615 1
0.819608 0.698116 0.549615 1
0.819608 0.698116 0.549615 1
0.819608 0.698116 0.549615 1
0.819608 0.698116 0.549615 1
0.819608 0.698116 0.549615 1
0.819608 0.698116 0.549615 1
0.819608 0.698116 0.549615 1
0.819608 0.698116 0.549615 1

