# vtk DataFile Version 3.0
Gocad TSurf to VTK
ASCII
DATASET POLYDATA
POINTS 399 float
21564600.000 4554633.750 160.000
21565775.000 4554655.000 -250.000
21565437.500 4554722.500 -145.000
21566300.000 4554715.000 -480.000
21564900.000 4554727.500 40.000
21564285.484 4554574.340 273.577
21564180.094 4554658.246 278.975
21564286.594 4554571.355 273.405
21564287.469 4554570.082 273.328
21565812.500 4554575.000 -248.750
21564332.000 4554529.637 270.772
21565975.000 4554565.000 -316.250
21566512.500 4554613.750 -515.000
21565912.500 4554452.500 -306.875
21565062.500 4554435.000 36.250
21566337.500 4554561.250 -455.000
21566662.500 4554546.250 -598.125
21566625.000 4554602.500 -566.250
21566637.500 4554583.750 -576.875
21566612.500 4554621.250 -555.625
21566600.000 4554640.000 -545.000
21566600.000 4554662.500 -556.875
21566600.000 4554685.000 -568.750
21566600.000 4554707.500 -580.625
21566600.000 4554730.000 -592.500
21566600.000 4554752.500 -604.375
21566450.000 4554767.500 -560.000
21566600.000 4554775.000 -616.250
21566600.000 4554797.500 -628.125
21566600.000 4554820.000 -640.000
21565212.500 4554767.500 -75.000
21565425.000 4554827.500 -155.000
21565100.000 4554861.250 -30.625
21566575.000 4554835.000 -622.500
21566550.000 4554850.000 -605.000
21566525.000 4554865.000 -587.500
21566500.000 4554880.000 -570.000
21565912.500 4554883.750 -327.500
21566475.000 4554895.000 -552.500
21566450.000 4554910.000 -535.000
21566237.500 4554921.250 -442.500
21565100.000 4554956.250 -18.125
21566425.000 4554925.000 -517.500
21566400.000 4554940.000 -500.000
21565100.000 4554980.000 -15.000
21565275.000 4555010.000 -70.000
21566250.000 4554980.000 -433.750
21565137.500 4555043.750 5.625
21565325.000 4555206.250 -3.750
21565000.000 4555032.500 31.250
21565025.000 4555272.500 66.250
21563964.328 4555040.832 300.882
21563983.359 4555054.637 301.384
21563961.422 4555038.727 300.806
21563930.078 4555015.996 299.979
21563931.422 4555012.652 299.815
21564962.500 4554955.000 23.750
21563941.922 4554986.402 298.522
21564137.500 4554805.000 256.250
21563978.766 4554898.973 293.712
21564028.094 4554785.109 287.083
21564026.891 4554779.723 286.796
21564063.719 4554750.391 284.909
21564065.766 4554749.262 284.832
21564138.641 4554691.246 281.099
21564144.891 4554686.262 280.778
21563954.375 4554955.262 296.988
21564475.000 4555147.500 211.250
21564011.203 4555197.680 307.811
21564737.500 4555202.500 157.500
21565000.000 4555290.000 70.000
21565400.000 4555240.000 -30.000
21565037.500 4555305.000 54.375
21565362.500 4555303.750 -39.375
21564900.000 4555347.500 77.500
21565262.500 4555395.000 -39.375
21563863.406 4555436.859 319.967
21563851.344 4555445.133 320.437
21563867.172 4555434.289 319.820
21563905.734 4555407.844 318.315
21563950.047 4555369.988 316.240
21564075.000 4555340.000 291.875
21563954.125 4555362.160 315.847
21564007.609 4555228.160 309.250
21563973.922 4555324.164 313.943
21564014.453 4555214.355 308.560
21564375.000 4555497.500 166.250
21563746.547 4555538.676 325.532
21564650.000 4555491.250 96.250
21564487.500 4555508.750 133.125
21564600.000 4555520.000 100.000
21563650.234 4555624.629 330.213
21563648.453 4555626.215 330.299
21563684.344 4555594.191 328.555
21563716.375 4555565.594 326.998
21563613.109 4555657.766 332.018
21563612.578 4555658.238 332.044
21565300.000 4555410.000 -55.000
21566012.500 4555292.500 -310.000
21565750.000 4555270.000 -190.000
21566100.000 4555300.000 -350.000
21566112.500 4555281.250 -353.125
21566100.000 4555290.000 -390.000
21566112.500 4555272.500 -388.125
21566125.000 4555255.000 -386.250
21566137.500 4555237.500 -384.375
21566150.000 4555225.000 -362.500
21566150.000 4555220.000 -382.500
21566162.500 4555202.500 -380.625
21566175.000 4555185.000 -378.750
21566187.500 4555168.750 -371.875
21565487.500 4555247.500 -70.000
21566187.500 4555167.500 -376.875
21566200.000 4555150.000 -375.000
21565650.000 4555152.500 -158.125
21566000.000 4555125.000 -305.000
21565700.000 4555135.000 -183.750
21566237.500 4555137.500 -392.500
21566275.000 4555125.000 -410.000
21566312.500 4555112.500 -427.500
21566350.000 4555100.000 -445.000
21566387.500 4555087.500 -462.500
21566425.000 4555075.000 -480.000
21566462.500 4555062.500 -497.500
21566500.000 4555050.000 -515.000
21566487.500 4555036.250 -513.125
21566025.000 4555040.000 -334.375
21566475.000 4555022.500 -511.250
21566462.500 4555008.750 -509.375
21566450.000 4554995.000 -507.500
21566437.500 4554981.250 -505.625
21566425.000 4554967.500 -503.750
21566412.500 4554953.750 -501.875
21566650.000 4554565.000 -587.500
21566675.000 4554527.500 -608.750
21566687.500 4554508.750 -619.375
21566700.000 4554490.000 -630.000
21566637.500 4554463.750 -617.500
21564500.000 4554330.000 250.000
21566700.000 4554468.750 -646.875
21566700.000 4554447.500 -663.750
21566450.000 4554385.000 -580.000
21566125.000 4554317.500 -473.750
21566700.000 4554426.250 -680.625
21566700.000 4554405.000 -697.500
21566700.000 4554383.750 -714.375
21566700.000 4554362.500 -731.250
21566700.000 4554341.250 -748.125
21566700.000 4554320.000 -765.000
21564825.000 4554107.500 185.000
21564850.000 4554176.250 167.500
21566662.500 4554276.250 -728.750
21566250.000 4554202.500 -516.250
21566625.000 4554232.500 -692.500
21565075.000 4554042.500 85.000
21565950.000 4554080.000 -347.500
21564750.000 4554052.500 232.500
21564775.000 4554008.750 231.250
21564725.000 4554096.250 233.750
21564700.000 4554140.000 235.000
21564675.000 4554163.750 238.750
21564675.000 4554190.000 242.500
21564687.500 4554165.000 238.750
21564612.500 4554315.000 261.250
21564525.000 4554306.250 261.250
21564600.000 4554340.000 265.000
21565600.000 4554357.500 -170.000
21564500.000 4554330.000 265.000
21564475.000 4554356.250 253.750
21564562.500 4554365.000 266.875
21564525.000 4554390.000 268.750
21564487.500 4554415.000 270.625
21564425.000 4554408.750 270.625
21564400.000 4554435.000 272.500
21564450.000 4554440.000 272.500
21564412.500 4554465.000 274.375
21564411.703 4554464.918 274.375
21564394.234 4554441.051 272.932
21564412.000 4554465.332 274.400
21564380.516 4554461.039 272.464
21564363.016 4554486.543 271.867
21564345.859 4554511.523 271.282
21564344.422 4554514.551 271.248
21564800.000 4553965.000 230.000
21565200.000 4554010.000 35.000
21564825.000 4553921.250 228.750
21565325.000 4553977.500 -15.000
21565887.500 4554030.000 -301.875
21564850.000 4553877.500 227.500
21564875.000 4553833.750 226.250
21564900.000 4553790.000 225.000
21565200.000 4553745.000 120.000
21564912.500 4553762.500 226.250
21565700.000 4553775.000 -110.000
21565400.000 4553715.000 50.000
21565950.000 4553815.000 -250.000
21566137.500 4553766.250 -313.750
21566400.000 4553970.000 -475.000
21566375.000 4553942.500 -457.500
21566350.000 4554047.500 -488.750
21566437.500 4554013.750 -511.250
21566300.000 4554125.000 -502.500
21566512.500 4554101.250 -583.750
21566587.500 4554188.750 -656.250
21566550.000 4554145.000 -620.000
21566475.000 4554057.500 -547.500
21566300.000 4553860.000 -405.000
21566400.000 4553946.250 -469.375
21566400.000 4553922.500 -463.750
21566400.000 4553898.750 -458.125
21566400.000 4553875.000 -452.500
21566400.000 4553851.250 -446.875
21566400.000 4553827.500 -441.250
21566250.000 4553805.000 -370.000
21566400.000 4553803.750 -435.625
21566400.000 4553780.000 -430.000
21566212.500 4553707.500 -335.000
21566387.500 4553733.750 -418.125
21566375.000 4553687.500 -406.250
21566237.500 4553622.500 -335.000
21565850.000 4553605.000 -125.000
21566362.500 4553641.250 -394.375
21566350.000 4553595.000 -382.500
21566250.000 4553580.000 -335.000
21566075.000 4553507.500 -230.000
21566337.500 4553548.750 -370.625
21566325.000 4553502.500 -358.750
21566312.500 4553456.250 -346.875
21566287.500 4553452.500 -335.000
21566225.000 4553442.500 -300.000
21566300.000 4553410.000 -335.000
21565450.000 4553375.000 47.500
21566262.500 4553336.250 -296.875
21565700.000 4553187.500 -18.750
21566287.500 4553338.750 -308.750
21566275.000 4553267.500 -282.500
21566225.000 4553262.500 -258.750
21566262.500 4553196.250 -256.250
21566250.000 4553125.000 -230.000
21566237.500 4553053.750 -203.750
21566112.500 4553041.250 -144.375
21566225.000 4552982.500 -177.500
21566212.500 4552911.250 -151.250
21566037.500 4552893.750 -68.125
21565900.000 4552942.500 -26.250
21566200.000 4552840.000 -125.000
21566000.000 4552820.000 -30.000
21566187.500 4552786.250 -109.375
21566025.000 4552717.500 -22.500
21565975.000 4552763.750 -10.625
21566175.000 4552732.500 -93.750
21566162.500 4552678.750 -78.125
21566037.500 4552666.250 -18.750
21566150.000 4552625.000 -62.500
21566075.000 4552512.500 -7.500
21565800.000 4552370.000 125.000
21566125.000 4552517.500 -31.250
21566137.500 4552571.250 -46.875
21566112.500 4552463.750 -15.625
21566100.000 4552410.000 0.000
21565837.500 4552238.750 -36.250
21565500.000 4552193.750 119.375
21566075.000 4552361.250 -38.125
21566050.000 4552312.500 -76.250
21566025.000 4552263.750 -114.375
21565850.000 4552195.000 -90.000
21566000.000 4552215.000 -152.500
21565975.000 4552166.250 -190.625
21565950.000 4552117.500 -228.750
21565887.500 4552063.750 -251.250
21565100.000 4551958.750 111.875
21565925.000 4552068.750 -266.875
21565900.000 4552020.000 -305.000
21565000.000 4551900.000 110.000
21565800.000 4551966.250 -278.750
21565025.000 4551995.000 176.250
21564750.000 4552055.000 335.000
21564837.500 4552111.250 345.000
21564662.500 4551998.750 325.000
21564575.000 4551942.500 315.000
21564487.500 4551886.250 305.000
21564400.000 4551830.000 295.000
21564487.500 4551800.000 246.250
21564375.000 4551787.500 295.000
21565012.500 4551861.250 84.375
21564575.000 4551770.000 197.500
21565600.000 4551858.750 -226.250
21565200.000 4551643.750 -121.250
21565850.000 4551845.000 -335.000
21565875.000 4551932.500 -320.000
21565812.500 4551713.750 -357.500
21565800.000 4551670.000 -365.000
21565100.000 4551526.250 -103.750
21565287.500 4551417.500 -226.250
21565075.000 4551667.500 -43.750
21564837.500 4551680.000 51.250
[...]
POINT_DATA 399
COLOR_SCALARS GocadColor 4
0.0930037 0.0930037 0.439216 1
0.0930037 0.0930037 0.439216 1
0.0930037 0.0930037 0.439216 1
0.0930037 0.0930037 0.439216 1
0.0930037 0.0930037 0.439216 1
0.0930037 0.0930037 0.439216 1
0.0930037 0.0930037 0.439216 1
0.0930037 0.0930037 0.439216 1
0.0930037 0.0930037 0.439216 1
0.0930037 0.0930037 0.439216 1
0.0930037 0.0930037 0.439216 1
0.0930037 0.0930037 0.439216 1
0.0930037 0.0930037 0.439216 1
0.0930037 0.0930037 0.439216 1
0.0930037 0.0930037 0.439216 1
0.0930037 0.0930037 0.439216 1
0.0930037 0.0930037 0.439216 1
0.0930037 0.0930037 0.439216 1
0.0930037 0.0930037 0.439216 1
0.0930037 0.0930037 0.439216 1
0.0930037 0.0930037 0.439216 1
0.0930037 0.0930037 0.439216 1
0.0930037 0.0930037 0.439216 1
0.0930037 0.0930037 0.439216 1
0.0930037 0.0930037 0.439216 1
0.0930037 0.0930037 0.439216 1
0.0930037 0.0930037 0.439216 1
0.0930037 0.0930037 0.439216 1
0.0930037 0.0930037 0.439216 1
0.0930037 0.0930037 0.439216 1
0.0930037 0.0930037 0.439216 1
0.0930037 0.0930037 0.439216 1
0.0930037 0.0930037 0.439216 1
0.0930037 0.0930037 0.439216 1
0.0930037 0.0930037 0.439216 1
0.0930037 0.0930037 0.439216 1
0.0930037 0.0930037 0.439216 1
0.0930037 0.0930037 0.439216 1
0.0930037 0.0930037 0.439216 1
0.0930037 0.0930037 0.439216 1
0.0930037 0.0930037 0.439216 1
0.0930037 0.0930037 0.439216 1
0.0930037 0.0930037 0.439216 1
0.0930037 0.0930037 0.439216 1
0.0930037 0.0930037 0.439216 1
0.0930037 0.0930037 0.439216 1
0.0930037 0.0930037 0.439216 1
0.0930037 0.0930037 0.439216 1
0.0930037 0.0930037 0.439216 1
0.0930037 0.0930037 0.439216 1
0.0930037 0.0930037 0.439216 1
0.0930037 0.0930037 0.439216 1
0.0930037 0.0930037 0.439216 1
0.0930037 0.0930037 0.439216 1
0.0930037 0.0930037 0.439216 1
0.0930037 0.0930037 0.439216 1
0.0930037 0.0930037 0.439216 1
0.0930037 0.0930037 0.439216 1
0.0930037 0.0930037 0.439216 1
0.0930037 0.0930037 0.439216 1
0.0930037 0.0930037 0.439216 1
0.0930037 0.0930037 0.439216 1
0.0930037 0.0930037 0.439216 1
0.0930037 0.0930037 0.439216 1
0.0930037 0.0930037 0.439216 1
0.0930037 0.0930037 0.439216 1
0.0930037 0.0930037 0.439216 1
0.0930037 0.0930037 0.439216 1
0.0930037 0.0930037 0.439216 1
0.0930037 0.0930037 0.439216 1
0.0930037 0.0930037 0.439216 1
0.0930037 0.0930037 0.439216 1
0.0930037 0.0930037 0.439216 1
0.0930037 0.0930037 0.439216 1
0.0930037 0.0930037 0.439216 1
0.0930037 0.0930037 0.439216 1
0.0930037 0.0930037 0.439216 1
0.0930037 0.0930037 0.439216 1
0.0930037 0.0930037 0.439216 1
0.0930037 0.0930037 0.439216 1
0.0930037 0.0930037 0.439216 1
0.0930037 0.0930037 0.439216 1
0.0930037 0.0930037 0.439216 1
0.0930037 0.0930037 0.439216 1
0.0930037 0.0930037 0.439216 1
0.0930037 0.0930037 0.439216 1
0.0930037 0.0930037 0.439216 1
0.0930037 0.0930037 0.439216 1
0.0930037 0.0930037 0.439216 1
0.0930037 0.0930037 0.439216 1
0.0930037 0.0930037 0.439216 1
0.0930037 0.0930037 0.439216 1
0.0930037 0.0930037 0.439216 1
0.0930037 0.0930037 0.439216 1
0.0930037 0.0930037 0.439216 1
0.0930037 0.0930037 0.439216 1
0.0930037 0.0930037 0.439216 1
0.0930037 0.0930037 0.439216 1
0.0930037 0.0930037 0.439216 1
0.0930037 0.0930037 0.439216 1
0.0930037 0.0930037 0.439216 1
0.0930037 0.0930037 0.439216 1
0.0930037 0.0930037 0.439216 1
0.0930037 0.0930037 0.439216 1
0.0930037 0.0930037 0.439216 1
0.0930037 0.0930037 0.439216 1
0.0930037 0.0930037 0.439216 1
0.0930037 0.0930037 0.439216 1
0.0930037 0.0930037 0.439216 1
0.0930037 0.0930037 0.439216 1
0.0930037 0.0930037 0.439216 1
0.0930037 0.0930037 0.439216 1
0.0930037 0.0930037 0.439216 1
0.0930037 0.0930037 0.439216 1
0.0930037 0.0930037 0.439216 1
0.0930037 0.0930037 0.439216 1
0.0930037 0.0930037 0.439216 1
0.0930037 0.0930037 0.439216 1
0.0930037 0.0930037 0.439216 1
0.0930037 0.0930037 0.439216 1
0.0930037 0.0930037 0.439216 1
0.0930037 0.0930037 0.439216 1
0.0930037 0.0930037 0.439216 1
0.0930037 0.0930037 0.439216 1
0.0930037 0.0930037 0.439216 1
0.0930037 0.0930037 0.439216 1
0.0930037 0.0930037 0.439216 1
0.0930037 0.0930037 0.439216 1
0.0930037 0.0930037 0.439216 1
0.0930037 0.0930037 0.439216 1
0.0930037 0.0930037 0.439216 1
0.0930037 0.0930037 0.439216 1
0.0930037 0.0930037 0.439216 1
0.0930037 0.0930037 0.439216 1
0.0930037 0.0930037 0.439216 1
0.0930037 0.0930037 0.439216 1
0.0930037 0.0930037 0.439216 1
0.0930037 0.0930037 0.439216 1
0.0930037 0.0930037 0.439216 1
0.0930037 0.0930037 0.439216 1
0.0930037 0.0930037 0.439216 1
0.0930037 0.0930037 0.439216 1
0.0930037 0.0930037 0.439216 1
0.0930037 0.0930037 0.439216 1
0.0930037 0.0930037 0.439216 1
0.0930037 0.0930037 0.439216 1
0.0930037 0.0930037 0.439216 1
0.0930037 0.0930037 0.439216 1
0.0930037 0.0930037 0.439216 1
0.0930037 0.0930037 0.439216 1
0.0930037 0.0930037 0.439216 1
0.0930037 0.0930037 0.439216 1
0.0930037 0.0930037 0.439216 1
0.0930037 0.0930037 0.439216 1
0.0930037 0.0930037 0.439216 1
0.0930037 0.0930037 0.439216 1
0.0930037 0.0930037 0.439216 1
0.0930037 0.0930037 0.439216 1
0.0930037 0.0930037 0.439216 1
0.0930037 0.0930037 0.439216 1
0.0930037 0.0930037 0.439216 1
0.0930037 0.0930037 0.439216 1
0.0930037 0.0930037 0.439216 1
0.0930037 0.0930037 0.439216 1
0.0930037 0.0930037 0.439216 1
0.0930037 0.0930037 0.439216 1
0.0930037 0.0930037 0.439216 1
0.0930037 0.0930037 0.439216 1
0.0930037 0.0930037 0.439216 1
0.0930037 0.0930037 0.439216 1
0.0930037 0.0930037 0.439216 1
0.0930037 0.0930037 0.439216 1
0.0930037 0.0930037 0.439216 1
0.0930037 0.0930037 0.439216 1
0.0930037 0.0930037 0.439216 1
0.0930037 0.0930037 0.439216 1
0.0930037 0.0930037 0.439216 1
0.0930037 0.0930037 0.439216 1
0.0930037 0.0930037 0.439216 1
0.0930037 0.0930037 0.439216 1
0.0930037 0.0930037 0.439216 1
0.0930037 0.0930037 0.439216 1
0.0930037 0.0930037 0.439216 1
0.0930037 0.0930037 0.439216 1
0.0930037 0.0930037 0.439216 1
0.0930037 0.0930037 0.439216 1
0.0930037 0.0930037 0.439216 1
0.0930037 0.0930037 0.439216 1
0.0930037 0.0930037 0.439216 1
0.0930037 0.0930037 0.439216 1
0.0930037 0.0930037 0.439216 1
0.0930037 0.0930037 0.439216 1
0.0930037 0.0930037 0.439216 1
0.0930037 0.0930037 0.439216 1
0.0930037 0.0930037 0.439216 1
0.0930037 0.0930037 0.439216 1
0.0930037 0.0930037 0.439216 1
0.0930037 0.0930037 0.439216 1
0.0930037 0.0930037 0.439216 1
0.0930037 0.0930037 0.439216 1
0.0930037 0.0930037 0.439216 1
0.0930037 0.0930037 0.439216 1
0.0930037 0.0930037 0.439216 1
0.0930037 0.0930037 0.439216 1
0.0930037 0.0930037 0.439216 1
0.0930037 0.0930037 0.439216 1
0.0930037 0.0930037 0.439216 1
0.0930037 0.0930037 0.439216 1
0.0930037 0.0930037 0.439216 1
0.0930037 0.0930037 0.439216 1
0.0930037 0.0930037 0.439216 1
0.0930037 0.0930037 0.439216 1
0.0930037 0.0930037 0.439216 1
0.0930037 0.0930037 0.439216 1
0.0930037 0.0930037 0.439216 1
0.0930037 0.0930037 0.439216 1
0.0930037 0.0930037 0.439216 1
0.0930037 0.0930037 0.439216 1
0.0930037 0.0930037 0.439216 1
0.0930037 0.0930037 0.439216 1
0.0930037 0.0930037 0.439216 1
0.0930037 0.0930037 0.439216 1
0.0930037 0.0930037 0.439216 1
0.0930037 0.0930037 0.439216 1
0.0930037 0.0930037 0.439216 1
0.0930037 0.0930037 0.439216 1
0.0930037 0.0930037 0.439216 1
0.0930037 0.0930037 0.439216 1
0.0930037 0.0930037 0.439216 1
0.0930037 0.0930037 0.439216 1
0.0930037 0.0930037 0.439216 1
0.0930037 0.0930037 0.439216 1
0.0930037 0.0930037 0.439216 1
0.0930037 0.0930037 0.439216 1
0.0930037 0.0930037 0.439216 1
0.0930037 0.0930037 0.439216 1
0.0930037 0.0930037 0.439216 1
0.0930037 0.0930037 0.439216 1
0.0930037 0.0930037 0.439216 1
0.0930037 0.0930037 0.439216 1
0.0930037 0.0930037 0.439216 1
0.0930037 0.0930037 0.439216 1
0.0930037 0.0930037 0.439216 1
0.0930037 0.0930037 0.439216 1
0.0930037 0.0930037 0.439216 1
0.0930037 0.0930037 0.439216 1
0.0930037 0.0930037 0.439216 1
0.0930037 0.0930037 0.439216 1
0.0930037 0.0930037 0.439216 1
0.0930037 0.0930037 0.439216 1
0.0930037 0.0930037 0.439216 1
0.0930037 0.0930037 0.439216 1
0.0930037 0.0930037 0.439216 1
0.0930037 0.0930037 0.439216 1
0.0930037 0.0930037 0.439216 1
0.0930037 0.0930037 0.439216 1
0.0930037 0.0930037 0.439216 1
0.0930037 0.0930037 0.439216 1
0.0930037 0.0930037 0.439216 1
0.0930037 0.0930037 0.439216 1
0.0930037 0.0930037 0.439216 1
0.0930037 0.0930037 0.439216 1
0.0930037 0.0930037 0.439216 1
0.0930037 0.0930037 0.439216 1
0.0930037 0.0930037 0.439216 1
0.0930037 0.0930037 0.439216 1
0.0930037 0.0930037 0.439216 1
0.0930037 0.0930037 0.439216 1
0.0930037 0.0930037 0.439216 1
0.0930037 0.0930037 0.439216 1
0.0930037 0.0930037 0.439216 1
0.0930037 0.0930037 0.439216 1
0.0930037 0.0930037 0.439216 1
0.0930037 0.0930037 0.439216 1
0.0930037 0.0930037 0.439216 1
0.0930037 0.0930037 0.439216 1
0.0930037 0.0930037 0.439216 1
0.0930037 0.0930037 0.439216 1
0.0930037 0.0930037 0.439216 1
0.0930037 0.0930037 0.439216 1
0.0930037 0.0930037 0.439216 1
0.0930037 0.0930037 0.439216 1
0.0930037 0.0930037 0.439216 1
0.0930037 0.0930037 0.439216 1
0.0930037 0.0930037 0.439216 1
0.0930037 0.0930037 0.439216 1
0.0930037 0.0930037 0.439216 1
0.0930037 0.0930037 0.439216 1
0.0930037 0.0930037 0.439216 1
0.0930037 0.0930037 0.439216 1
0.0930037 0.0930037 0.439216 1
0.0930037 0.0930037 0.439216 1
0.0930037 0.0930037 0.439216 1
0.0930037 0.0930037 0.439216 1
0.0930037 0.0930037 0.439216 1
0.0930037 0.0930037 0.439216 1
0.0930037 0.0930037 0.439216 1
0.0930037 0.0930037 0.439216 1
0.0930037 0.0930037 0.439216 1
0.0930037 0.0930037 0.439216 1
0.0930037 0.0930037 0.439216 1
0.0930037 0.0930037 0.439216 1
0.0930037 0.0930037 0.439216 1
0.0930037 0.0930037 0.439216 1
0.0930037 0.0930037 0.439216 1
0.0930037 0.0930037 0.439216 1
0.0930037 0.0930037 0.439216 1
0.0930037 0.0930037 0.439216 1
0.0930037 0.0930037 0.439216 1
0.0930037 0.0930037 0.439216 1
0.0930037 0.0930037 0.439216 1
0.0930037 0.0930037 0.439216 1
0.0930037 0.0930037 0.439216 1
0.0930037 0.0930037 0.439216 1
0.0930037 0.0930037 0.439216 1
0.0930037 0.0930037 0.439216 1
0.0930037 0.0930037 0.439216 1
0.0930037 0.0930037 0.439216 1
0.0930037 0.0930037 0.439216 1
0.0930037 0.0930037 0.439216 1
0.0930037 0.0930037 0.439216 1
0.0930037 0.0930037 0.439216 1
0.0930037 0.0930037 0.439216 1
0.0930037 0.0930037 0.439216 1
0.0930037 0.0930037 0.439216 1
0.0930037 0.0930037 0.439216 1
0.0930037 0.0930037 0.439216 1
0.0930037 0.0930037 0.439216 1
0.0930037 0.0930037 0.439216 1
0.0930037 0.0930037 0.439216 1
0.0930037 0.0930037 0.439216 1
0.0930037 0.0930037 0.439216 1
0.0930037 0.0930037 0.439216 1
0.0930037 0.0930037 0.439216 1
0.0930037 0.0930037 0.439216 1
0.0930037 0.0930037 0.439216 1
0.0930037 0.0930037 0.439216 1
0.0930037 0.0930037 0.439216 1
0.0930037 0.0930037 0.439216 1
0.0930037 0.0930037 0.439216 1
0.0930037 0.0930037 0.439216 1
0.0930037 0.0930037 0.439216 1
0.0930037 0.0930037 0.439216 1
0.0930037 0.0930037 0.439216 1
0.0930037 0.0930037 0.439216 1
0.0930037 0.0930037 0.439216 1
0.0930037 0.0930037 0.439216 1
0.0930037 0.0930037 0.439216 1
0.0930037 0.0930037 0.439216 1
0.0930037 0.0930037 0.439216 1
0.0930037 0.0930037 0.439216 1
0.0930037 0.0930037 0.439216 1
0.0930037 0.0930037 0.439216 1
0.0930037 0.0930037 0.439216 1
0.0930037 0.0930037 0.439216 1
0.0930037 0.0930037 0.439216 1
0.0930037 0.0930037 0.439216 1
0.0930037 0.0930037 0.439216 1
0.0930037 0.0930037 0.439216 1
0.0930037 0.0930037 0.439216 1
0.0930037 0.0930037 0.439216 1
0.0930037 0.0930037 0.439216 1
0.0930037 0.0930037 0.439216 1
0.0930037 0.0930037 0.439216 1
0.0930037 0.0930037 0.439216 1
0.0930037 0.0930037 0.439216 1
0.0930037 0.0930037 0.439216 1
0.0930037 0.0930037 0.439216 1
0.0930037 0.0930037 0.439216 1
0.0930037 0.0930037 0.439216 1
0.0930037 0.0930037 0.439216 1
0.0930037 0.0930037 0.439216 1
0.0930037 0.0930037 0.439216 1
0.0930037 0.0930037 0.439216 1
0.0930037 0.0930037 0.439216 1
0.0930037 0.0930037 0.439216 1
0.0930037 0.0930037 0.439216 1
0.0930037 0.0930037 0.439216 1
0.0930037 0.0930037 0.439216 1
0.0930037 0.0930037 0.439216 1
0.0930037 0.0930037 0.439216 1
0.0930037 0.0930037 0.439216 1
0.0930037 0.0930037 0.439216 1
0.0930037 0.0930037 0.439216 1
0.0930037 0.0930037 0.439216 1
0.0930037 0.0930037 0.439216 1
0.0930037 0.0930037 0.439216 1
0.0930037 0.0930037 0.439216 1
0.0930037 0.0930037 0.439216 1
0.0930037 0.0930037 0.439216 1
0.0930037 0.0930037 0.439216 1
0.0930037 0.0930037 0.439216 1
0.0930037 0.0930037 0.439216 1
0.0930037 0.0930037 0.439216 1
0.0930037 0.0930037 0.439216 1
0.0930037 0.0930037 0.439216 1
0.0930037 0.0930037 0.439216 1
0.0930037 0.0930037 0.439216 1
0.0930037 0.0930037 0.439216 1

