# vtk DataFile Version 3.0
Gocad TSurf to VTK
ASCII
DATASET POLYDATA
POINTS 686 float
21581300.000 4552795.000 -1375.000
21581400.000 4553410.000 -1560.000
21581550.000 4553150.000 -1512.500
21581550.000 4553367.500 -1560.000
21581850.000 4552610.000 -1437.500
21581050.000 4553220.000 -1542.500
21580800.000 4552885.000 -1313.750
21581200.000 4553452.500 -1643.750
21580900.000 4553340.000 -1660.000
21580850.000 4553240.000 -1585.000
21581000.000 4553495.000 -1727.500
21580750.000 4553460.000 -1777.500
21580675.000 4553310.000 -1665.000
21580800.000 4553537.500 -1811.250
21580600.000 4553580.000 -1895.000
21580500.000 4553380.000 -1745.000
21580375.000 4553605.000 -1815.000
21580700.000 4553050.000 -1457.500
21580100.000 4552680.000 -1230.000
21580300.000 4552690.000 -1215.000
21580275.000 4553367.500 -1636.250
21579850.000 4553005.000 -1270.000
21580150.000 4553630.000 -1735.000
21580100.000 4553530.000 -1660.000
21579900.000 4553605.000 -1617.500
21579925.000 4553655.000 -1655.000
21579700.000 4553680.000 -1575.000
21579825.000 4553342.500 -1418.750
21579725.000 4553167.500 -1290.000
21579650.000 4552860.000 -1091.250
21579400.000 4553100.000 -996.250
21579800.000 4552800.000 -1137.500
21579925.000 4552630.000 -1111.250
21579950.000 4552740.000 -1183.750
21579700.000 4552202.500 -773.750
21580400.000 4552192.500 -832.500
21579600.000 4552295.000 -767.500
21579575.000 4552530.000 -873.750
21579500.000 4552065.000 -670.000
21579575.000 4551870.000 -590.000
21579350.000 4552042.500 -615.000
21579400.000 4552480.000 -755.000
21579450.000 4551925.000 -580.000
21579325.000 4551972.500 -570.000
21579200.000 4552020.000 -560.000
21579350.000 4551705.000 -510.000
21579050.000 4552370.000 -517.500
21578950.000 4552110.000 -482.500
21579275.000 4552620.000 -702.500
21579150.000 4552600.000 -615.000
21579350.000 4552950.000 -920.000
21579200.000 4552980.000 -795.000
21579250.000 4553140.000 -865.000
21579300.000 4553280.000 -947.500
21579475.000 4553407.500 -1195.000
21579125.000 4553250.000 -775.000
21579200.000 4553460.000 -898.750
21579350.000 4553485.000 -1080.000
21579000.000 4553360.000 -685.000
21579025.000 4552900.000 -597.500
21579100.000 4553640.000 -850.000
21579225.000 4553562.500 -965.000
21578900.000 4553587.500 -805.000
21578825.000 4553377.500 -681.250
21578900.000 4553707.500 -857.500
21578700.000 4553615.000 -795.000
21579100.000 4553800.000 -920.000
21579225.000 4553682.500 -1017.500
21578900.000 4553872.500 -906.250
21578700.000 4553945.000 -892.500
21578500.000 4554017.500 -878.750
21578500.000 4553522.500 -732.500
21578300.000 4554090.000 -865.000
21578650.000 4553395.000 -677.500
21578475.000 4553412.500 -673.750
21578300.000 4553430.000 -670.000
21578750.000 4553137.500 -576.250
21578450.000 4552852.500 -556.250
21578900.000 4552720.000 -475.000
21578200.000 4552712.500 -512.500
21578500.000 4552495.000 -482.500
21578000.000 4553020.000 -480.000
21577900.000 4552480.000 -370.000
21577325.000 4553140.000 -801.250
21577600.000 4553070.000 -495.000
21577950.000 4553665.000 -605.000
21577450.000 4553860.000 -708.750
21578125.000 4554042.500 -783.750
21577950.000 4553995.000 -702.500
21578100.000 4554160.000 -850.000
21577900.000 4554230.000 -835.000
21577700.000 4554300.000 -820.000
21577500.000 4554370.000 -805.000
21577375.000 4554212.500 -907.500
21577350.000 4554420.000 -1046.250
21577125.000 4553897.500 -1112.500
21577000.000 4553740.000 -1215.000
21577200.000 4554470.000 -1287.500
21577050.000 4554520.000 -1528.750
21576900.000 4554570.000 -1770.000
21576700.000 4554435.000 -1690.000
21576550.000 4553885.000 -1332.500
21576650.000 4554622.500 -1808.750
21576400.000 4554675.000 -1847.500
21576300.000 4554165.000 -1530.000
21576150.000 4554727.500 -1886.250
21576100.000 4554030.000 -1450.000
21575900.000 4554780.000 -1925.000
21575650.000 4554290.000 -1535.000
21575650.000 4553895.000 -1251.250
21575725.000 4554722.500 -1848.750
21575550.000 4554665.000 -1772.500
21575375.000 4554607.500 -1696.250
21575200.000 4554550.000 -1620.000
21575500.000 4553850.000 -1185.000
21575050.000 4554355.000 -1542.500
21575050.000 4553810.000 -1247.500
21575300.000 4553767.500 -1173.750
21574900.000 4554160.000 -1465.000
21574750.000 4553965.000 -1387.500
21574825.000 4553790.000 -1278.750
21574900.000 4553602.500 -1151.250
21574600.000 4553770.000 -1310.000
21574475.000 4553455.000 -1225.000
21574450.000 4553020.000 -1065.000
21574400.000 4553642.500 -1352.500
21574250.000 4553390.000 -1310.000
21574350.000 4553235.000 -1197.500
21574200.000 4553515.000 -1395.000
21574025.000 4553325.000 -1395.000
21574175.000 4553092.500 -1226.250
21574000.000 4553387.500 -1437.500
21573800.000 4553260.000 -1480.000
21574000.000 4552950.000 -1255.000
21573625.000 4553067.500 -1455.000
21573775.000 4552835.000 -1286.250
21573450.000 4552875.000 -1430.000
21573850.000 4552717.500 -1178.750
21573550.000 4552720.000 -1317.500
21574300.000 4552440.000 -920.000
21574075.000 4552335.000 -927.500
21573700.000 4552485.000 -1102.500
21574375.000 4551840.000 -688.750
21574000.000 4552065.000 -795.000
21574725.000 4552080.000 -705.000
21574900.000 4552597.500 -781.250
21574500.000 4551647.500 -637.500
21574250.000 4551630.000 -615.000
21575000.000 4552000.000 -667.500
21575200.000 4552055.000 -653.750
21575100.000 4551502.500 -621.250
21575000.000 4551300.000 -615.000
21575525.000 4551382.500 -570.000
21575700.000 4551410.000 -555.000
21575775.000 4551662.500 -576.250
21575550.000 4552187.500 -640.000
21575875.000 4551442.500 -556.250
21576050.000 4551475.000 -557.500
21575875.000 4551442.500 -556.250
21576225.000 4551507.500 -558.750
21575925.000 4552167.500 -618.750
21576400.000 4551540.000 -560.000
21575850.000 4552342.500 -640.000
21575550.000 4552535.000 -687.500
21576475.000 4551790.000 -626.250
21576350.000 4552480.000 -732.500
21576850.000 4551585.000 -672.500
21576625.000 4552290.000 -758.750
21577000.000 4551600.000 -710.000
21576700.000 4552540.000 -825.000
21577075.000 4551832.500 -727.500
21577000.000 4552535.000 -802.500
21577200.000 4551600.000 -690.000
21577400.000 4551600.000 -670.000
21577300.000 4551600.000 -680.000
21577225.000 4552297.500 -762.500
21577450.000 4552517.500 -677.500
21577150.000 4552532.500 -791.250
21577525.000 4551820.000 -595.000
21577775.000 4552260.000 -445.000
21577575.000 4551612.500 -606.250
21577750.000 4551630.000 -542.500
21577575.000 4551612.500 -606.250
21577750.000 4551625.000 -542.500
21577925.000 4551637.500 -478.750
21578000.000 4552262.500 -396.250
21578100.000 4551650.000 -415.000
21578150.000 4551640.000 -430.000
21578200.000 4551827.500 -448.750
21578150.000 4551637.500 -430.000
21578200.000 4551625.000 -445.000
21578250.000 4551612.500 -460.000
21578300.000 4551600.000 -475.000
21578375.000 4551605.000 -450.000
21578400.000 4551757.500 -457.500
21578450.000 4551595.000 -425.000
21578525.000 4551592.500 -400.000
21578600.000 4551590.000 -375.000
21578700.000 4552200.000 -405.000
21578750.000 4551697.500 -421.250
21578700.000 4551547.500 -403.750
21578800.000 4551505.000 -432.500
21578700.000 4551545.000 -403.750
21578800.000 4551500.000 -432.500
21578900.000 4551462.500 -461.250
21578900.000 4551455.000 -461.250
21579000.000 4551420.000 -490.000
21579050.000 4551912.500 -513.750
21579000.000 4551410.000 -490.000
21579125.000 4551402.500 -482.500
21579250.000 4551400.000 -475.000
21579250.000 4551395.000 -475.000
21579375.000 4551395.000 -467.500
21579375.000 4551387.500 -467.500
21579425.000 4551547.500 -485.000
21579500.000 4551390.000 -460.000
21579700.000 4551820.000 -600.000
21579950.000 4551825.000 -600.000
21579900.000 4551685.000 -510.000
21579650.000 4551427.500 -450.000
21580000.000 4551610.000 -465.000
21580100.000 4551540.000 -420.000
21579950.000 4551502.500 -430.000
21579900.000 4551190.000 -280.000
21580150.000 4551420.000 -360.000
21579800.000 4551237.500 -325.000
21579800.000 4551230.000 -325.000
21579700.000 4551290.000 -370.000
21579600.000 4551332.500 -415.000
21579700.000 4551280.000 -370.000
21579600.000 4551330.000 -415.000
21579500.000 4551380.000 -460.000
21579900.000 4551180.000 -280.000
21580000.000 4551150.000 -255.000
21580000.000 4551147.500 -255.000
21580100.000 4551115.000 -230.000
21580200.000 4551090.000 -205.000
21580200.000 4551300.000 -300.000
21580200.000 4551082.500 -205.000
21580300.000 4551050.000 -180.000
21580550.000 4551197.500 -292.500
21580400.000 4551397.500 -303.750
21580400.000 4550980.000 -228.750
21580400.000 4550972.500 -228.750
21580600.000 4551045.000 -320.000
21580750.000 4551230.000 -370.000
21580500.000 4550900.000 -277.500
21580600.000 4550820.000 -326.250
21580700.000 4550740.000 -375.000
21580500.000 4550895.000 -277.500
21580600.000 4550817.500 -326.250
21581000.000 4551110.000 -475.000
21580875.000 4551170.000 -422.500
21580825.000 4550762.500 -406.250
21581100.000 4550970.000 -487.500
21580750.000 4550677.500 -386.250
21580750.000 4550677.500 -386.250
21580800.000 4550615.000 -397.500
21581075.000 4550807.500 -468.750
21580850.000 4550552.500 -408.750
21580900.000 4550490.000 -420.000
21581350.000 4550837.500 -511.250
21581025.000 4550512.500 -430.000
21581550.000 4550517.500 -491.250
21580975.000 4550287.500 -408.750
21581150.000 4550165.000 -422.500
21581000.000 4550220.000 -405.000
21581550.000 4550145.000 -471.250
21581100.000 4549940.000 -405.000
21581200.000 4549660.000 -405.000
21581050.000 4550080.000 -405.000
21581000.000 4550042.500 -397.500
21581000.000 4549865.000 -390.000
21581000.000 4549687.500 -382.500
21581000.000 4549510.000 -375.000
21581275.000 4549455.000 -422.500
21581600.000 4549515.000 -467.500
21581125.000 4549342.500 -400.000
21581025.000 4549220.000 -413.750
21581350.000 4549250.000 -440.000
21581250.000 4549175.000 -425.000
21581375.000 4549007.500 -450.000
21581500.000 4548840.000 -475.000
21581050.000 4548930.000 -452.500
21581075.000 4548640.000 -491.250
21581100.000 4548350.000 -530.000
21581100.000 4548340.000 -530.000
21582000.000 4549370.000 -530.000
21581800.000 4549442.500 -498.750
[...]
POINT_DATA 686
COLOR_SCALARS GocadColor 4
0.529412 0.807843 0.921569 1
0.529412 0.807843 0.921569 1
0.529412 0.807843 0.921569 1
0.529412 0.807843 0.921569 1
0.529412 0.807843 0.921569 1
0.529412 0.807843 0.921569 1
0.529412 0.807843 0.921569 1
0.529412 0.807843 0.921569 1
0.529412 0.807843 0.921569 1
0.529412 0.807843 0.921569 1
0.529412 0.807843 0.921569 1
0.529412 0.807843 0.921569 1
0.529412 0.807843 0.921569 1
0.529412 0.807843 0.921569 1
0.529412 0.807843 0.921569 1
0.529412 0.807843 0.921569 1
0.529412 0.807843 0.921569 1
0.529412 0.807843 0.921569 1
0.529412 0.807843 0.921569 1
0.529412 0.807843 0.921569 1
0.529412 0.807843 0.921569 1
0.529412 0.807843 0.921569 1
0.529412 0.807843 0.921569 1
0.529412 0.807843 0.921569 1
0.529412 0.807843 0.921569 1
0.529412 0.807843 0.921569 1
0.529412 0.807843 0.921569 1
0.529412 0.807843 0.921569 1
0.529412 0.807843 0.921569 1
0.529412 0.807843 0.921569 1
0.529412 0.807843 0.921569 1
0.529412 0.807843 0.921569 1
0.529412 0.807843 0.921569 1
0.529412 0.807843 0.921569 1
0.529412 0.807843 0.921569 1
0.529412 0.807843 0.921569 1
0.529412 0.807843 0.921569 1
0.529412 0.807843 0.921569 1
0.529412 0.807843 0.921569 1
0.529412 0.807843 0.921569 1
0.529412 0.807843 0.921569 1
0.529412 0.807843 0.921569 1
0.529412 0.807843 0.921569 1
0.529412 0.807843 0.921569 1
0.529412 0.807843 0.921569 1
0.529412 0.807843 0.921569 1
0.529412 0.807843 0.921569 1
0.529412 0.807843 0.921569 1
0.529412 0.807843 0.921569 1
0.529412 0.807843 0.921569 1
0.529412 0.807843 0.921569 1
0.529412 0.807843 0.921569 1
0.529412 0.807843 0.921569 1
0.529412 0.807843 0.921569 1
0.529412 0.807843 0.921569 1
0.529412 0.807843 0.921569 1
0.529412 0.807843 0.921569 1
0.529412 0.807843 0.921569 1
0.529412 0.807843 0.921569 1
0.529412 0.807843 0.921569 1
0.529412 0.807843 0.921569 1
0.529412 0.807843 0.921569 1
0.529412 0.807843 0.921569 1
0.529412 0.807843 0.921569 1
0.529412 0.807843 0.921569 1
0.529412 0.807843 0.921569 1
0.529412 0.807843 0.921569 1
0.529412 0.807843 0.921569 1
0.529412 0.807843 0.921569 1
0.529412 0.807843 0.921569 1
0.529412 0.807843 0.921569 1
0.529412 0.807843 0.921569 1
0.529412 0.807843 0.921569 1
0.529412 0.807843 0.921569 1
0.529412 0.807843 0.921569 1
0.529412 0.807843 0.921569 1
0.529412 0.807843 0.921569 1
0.529412 0.807843 0.921569 1
0.529412 0.807843 0.921569 1
0.529412 0.807843 0.921569 1
0.529412 0.807843 0.921569 1
0.529412 0.807843 0.921569 1
0.529412 0.807843 0.921569 1
0.529412 0.807843 0.921569 1
0.529412 0.807843 0.921569 1
0.529412 0.807843 0.921569 1
0.529412 0.807843 0.921569 1
0.529412 0.807843 0.921569 1
0.529412 0.807843 0.921569 1
0.529412 0.807843 0.921569 1
0.529412 0.807843 0.921569 1
0.529412 0.807843 0.921569 1
0.529412 0.807843 0.921569 1
0.529412 0.807843 0.921569 1
0.529412 0.807843 0.921569 1
0.529412 0.807843 0.921569 1
0.529412 0.807843 0.921569 1
0.529412 0.807843 0.921569 1
0.529412 0.807843 0.921569 1
0.529412 0.807843 0.921569 1
0.529412 0.807843 0.921569 1
0.529412 0.807843 0.921569 1
0.529412 0.807843 0.921569 1
0.529412 0.807843 0.921569 1
0.529412 0.807843 0.921569 1
0.529412 0.807843 0.921569 1
0.529412 0.807843 0.921569 1
0.529412 0.807843 0.921569 1
0.529412 0.807843 0.921569 1
0.529412 0.807843 0.921569 1
0.529412 0.807843 0.921569 1
0.529412 0.807843 0.921569 1
0.529412 0.807843 0.921569 1
0.529412 0.807843 0.921569 1
0.529412 0.807843 0.921569 1
0.529412 0.807843 0.921569 1
0.529412 0.807843 0.921569 1
0.529412 0.807843 0.921569 1
0.529412 0.807843 0.921569 1
0.529412 0.807843 0.921569 1
0.529412 0.807843 0.921569 1
0.529412 0.807843 0.921569 1
0.529412 0.807843 0.921569 1
0.529412 0.807843 0.921569 1
0.529412 0.807843 0.921569 1
0.529412 0.807843 0.921569 1
0.529412 0.807843 0.921569 1
0.529412 0.807843 0.921569 1
0.529412 0.807843 0.921569 1
0.529412 0.807843 0.921569 1
0.529412 0.807843 0.921569 1
0.529412 0.807843 0.921569 1
0.529412 0.807843 0.921569 1
0.529412 0.807843 0.921569 1
0.529412 0.807843 0.921569 1
0.529412 0.807843 0.921569 1
0.529412 0.807843 0.921569 1
0.529412 0.807843 0.921569 1
0.529412 0.807843 0.921569 1
0.529412 0.807843 0.921569 1
0.529412 0.807843 0.921569 1
0.529412 0.807843 0.921569 1
0.529412 0.807843 0.921569 1
0.529412 0.807843 0.921569 1
0.529412 0.807843 0.921569 1
0.529412 0.807843 0.921569 1
0.529412 0.807843 0.921569 1
0.529412 0.807843 0.921569 1
0.529412 0.807843 0.921569 1
0.529412 0.807843 0.921569 1
0.529412 0.807843 0.921569 1
0.529412 0.807843 0.921569 1
0.529412 0.807843 0.921569 1
0.529412 0.807843 0.921569 1
0.529412 0.807843 0.921569 1
0.529412 0.807843 0.921569 1
0.529412 0.807843 0.921569 1
0.529412 0.807843 0.921569 1
0.529412 0.807843 0.921569 1
0.529412 0.807843 0.921569 1
0.529412 0.807843 0.921569 1
0.529412 0.807843 0.921569 1
0.529412 0.807843 0.921569 1
0.529412 0.807843 0.921569 1
0.529412 0.807843 0.921569 1
0.529412 0.807843 0.921569 1
0.529412 0.807843 0.921569 1
0.529412 0.807843 0.921569 1
0.529412 0.807843 0.921569 1
0.529412 0.807843 0.921569 1
0.529412 0.807843 0.921569 1
0.529412 0.807843 0.921569 1
0.529412 0.807843 0.921569 1
0.529412 0.807843 0.921569 1
0.529412 0.807843 0.921569 1
0.529412 0.807843 0.921569 1
0.529412 0.807843 0.921569 1
0.529412 0.807843 0.921569 1
0.529412 0.807843 0.921569 1
0.529412 0.807843 0.921569 1
0.529412 0.807843 0.921569 1
0.529412 0.807843 0.921569 1
0.529412 0.807843 0.921569 1
0.529412 0.807843 0.921569 1
0.529412 0.807843 0.921569 1
0.529412 0.807843 0.921569 1
0.529412 0.807843 0.921569 1
0.529412 0.807843 0.921569 1
0.529412 0.807843 0.921569 1
0.529412 0.807843 0.921569 1
0.529412 0.807843 0.921569 1
0.529412 0.807843 0.921569 1
0.529412 0.807843 0.921569 1
0.529412 0.807843 0.921569 1
0.529412 0.807843 0.921569 1
0.529412 0.807843 0.921569 1
0.529412 0.807843 0.921569 1
0.529412 0.807843 0.921569 1
0.529412 0.807843 0.921569 1
0.529412 0.807843 0.921569 1
0.529412 0.807843 0.921569 1
0.529412 0.807843 0.921569 1
0.529412 0.807843 0.921569 1
0.529412 0.807843 0.921569 1
0.529412 0.807843 0.921569 1
0.529412 0.807843 0.921569 1
0.529412 0.807843 0.921569 1
0.529412 0.807843 0.921569 1
0.529412 0.807843 0.921569 1
0.529412 0.807843 0.921569 1
0.529412 0.807843 0.921569 1
0.529412 0.807843 0.921569 1
0.529412 0.807843 0.921569 1
0.529412 0.807843 0.921569 1
0.529412 0.807843 0.921569 1
0.529412 0.807843 0.921569 1
0.529412 0.807843 0.921569 1
0.529412 0.807843 0.921569 1
0.529412 0.807843 0.921569 1
0.529412 0.807843 0.921569 1
0.529412 0.807843 0.921569 1
0.529412 0.807843 0.921569 1
0.529412 0.807843 0.921569 1
0.529412 0.807843 0.921569 1
0.529412 0.807843 0.921569 1
0.529412 0.807843 0.921569 1
0.529412 0.807843 0.921569 1
0.529412 0.807843 0.921569 1
0.529412 0.807843 0.921569 1
0.529412 0.807843 0.921569 1
0.529412 0.807843 0.921569 1
0.529412 0.807843 0.921569 1
0.529412 0.807843 0.921569 1
0.529412 0.807843 0.921569 1
0.529412 0.807843 0.921569 1
0.529412 0.807843 0.921569 1
0.529412 0.807843 0.921569 1
0.529412 0.807843 0.921569 1
0.529412 0.807843 0.921569 1
0.529412 0.807843 0.921569 1
0.529412 0.807843 0.921569 1
0.529412 0.807843 0.921569 1
0.529412 0.807843 0.921569 1
0.529412 0.807843 0.921569 1
0.529412 0.807843 0.921569 1
0.529412 0.807843 0.921569 1
0.529412 0.807843 0.921569 1
0.529412 0.807843 0.921569 1
0.529412 0.807843 0.921569 1
0.529412 0.807843 0.921569 1
0.529412 0.807843 0.921569 1
0.529412 0.807843 0.921569 1
0.529412 0.807843 0.921569 1
0.529412 0.807843 0.921569 1
0.529412 0.807843 0.921569 1
0.529412 0.807843 0.921569 1
0.529412 0.807843 0.921569 1
0.529412 0.807843 0.921569 1
0.529412 0.807843 0.921569 1
0.529412 0.807843 0.921569 1
0.529412 0.807843 0.921569 1
0.529412 0.807843 0.921569 1
0.529412 0.807843 0.921569 1
0.529412 0.807843 0.921569 1
0.529412 0.807843 0.921569 1
0.529412 0.807843 0.921569 1
0.529412 0.807843 0.921569 1
0.529412 0.807843 0.921569 1
0.529412 0.807843 0.921569 1
0.529412 0.807843 0.921569 1
0.529412 0.807843 0.921569 1
0.529412 0.807843 0.921569 1
0.529412 0.807843 0.921569 1
0.529412 0.807843 0.921569 1
0.529412 0.807843 0.921569 1
0.529412 0.807843 0.921569 1
0.529412 0.807843 0.921569 1
0.529412 0.807843 0.921569 1
0.529412 0.807843 0.921569 1
0.529412 0.807843 0.921569 1
0.529412 0.807843 0.921569 1
0.529412 0.807843 0.921569 1
0.529412 0.807843 0.921569 1
0.529412 0.807843 0.921569 1
0.529412 0.807843 0.921569 1
0.529412 0.807843 0.921569 1
0.529412 0.807843 0.921569 1
0.529412 0.807843 0.921569 1
0.529412 0.807843 0.921569 1
0.529412 0.807843 0.921569 1
0.529412 0.807843 0.921569 1
0.529412 0.807843 0.921569 1
0.529412 0.807843 0.921569 1
0.529412 0.807843 0.921569 1
0.529412 0.807843 0.921569 1
0.529412 0.807843 0.921569 1
0.529412 0.807843 0.921569 1
0.529412 0.807843 0.921569 1
0.529412 0.807843 0.921569 1
0.529412 0.807843 0.921569 1
0.529412 0.807843 0.921569 1
0.529412 0.807843 0.921569 1
0.529412 0.807843 0.921569 1
0.529412 0.807843 0.921569 1
0.529412 0.807843 0.921569 1
0.529412 0.807843 0.921569 1
0.529412 0.807843 0.921569 1
0.529412 0.807843 0.921569 1
0.529412 0.807843 0.921569 1
0.529412 0.807843 0.921569 1
0.529412 0.807843 0.921569 1
0.529412 0.807843 0.921569 1
0.529412 0.807843 0.921569 1
0.529412 0.807843 0.921569 1
0.529412 0.807843 0.921569 1
0.529412 0.807843 0.921569 1
0.529412 0.807843 0.921569 1
0.529412 0.807843 0.921569 1
0.529412 0.807843 0.921569 1
0.529412 0.807843 0.921569 1
0.529412 0.807843 0.921569 1
0.529412 0.807843 0.921569 1
0.529412 0.807843 0.921569 1
0.529412 0.807843 0.921569 1
0.529412 0.807843 0.921569 1
0.529412 0.807843 0.921569 1
0.529412 0.807843 0.921569 1
0.529412 0.807843 0.921569 1
0.529412 0.807843 0.921569 1
0.529412 0.807843 0.921569 1
0.529412 0.807843 0.921569 1
0.529412 0.807843 0.921569 1
0.529412 0.807843 0.921569 1
0.529412 0.807843 0.921569 1
0.529412 0.807843 0.921569 1
0.529412 0.807843 0.921569 1
0.529412 0.807843 0.921569 1
0.529412 0.807843 0.921569 1
0.529412 0.807843 0.921569 1
0.529412 0.807843 0.921569 1
0.529412 0.807843 0.921569 1
0.529412 0.807843 0.921569 1
0.529412 0.807843 0.921569 1
0.529412 0.807843 0.921569 1
0.529412 0.807843 0.921569 1
0.529412 0.807843 0.921569 1
0.529412 0.807843 0.921569 1
0.529412 0.807843 0.921569 1
0.529412 0.807843 0.921569 1
0.529412 0.807843 0.921569 1
0.529412 0.807843 0.921569 1
0.529412 0.807843 0.921569 1
0.529412 0.807843 0.921569 1
0.529412 0.807843 0.921569 1
0.529412 0.807843 0.921569 1
0.529412 0.807843 0.921569 1
0.529412 0.807843 0.921569 1
0.529412 0.807843 0.921569 1
0.529412 0.807843 0.921569 1
0.529412 0.807843 0.921569 1
0.529412 0.807843 0.921569 1
0.529412 0.807843 0.921569 1
0.529412 0.807843 0.921569 1
0.529412 0.807843 0.921569 1
0.529412 0.807843 0.921569 1
0.529412 0.807843 0.921569 1
0.529412 0.807843 0.921569 1
0.529412 0.807843 0.921569 1
0.529412 0.807843 0.921569 1
0.529412 0.807843 0.921569 1
0.529412 0.807843 0.921569 1
0.529412 0.807843 0.921569 1
0.529412 0.807843 0.921569 1
0.529412 0.807843 0.921569 1
0.529412 0.807843 0.921569 1
0.529412 0.807843 0.921569 1
0.529412 0.807843 0.921569 1
0.529412 0.807843 0.921569 1
0.529412 0.807843 0.921569 1
0.529412 0.807843 0.921569 1
0.529412 0.807843 0.921569 1
0.529412 0.807843 0.921569 1
0.529412 0.807843 0.921569 1
0.529412 0.807843 0.921569 1
0.529412 0.807843 0.921569 1
0.529412 0.807843 0.921569 1
0.529412 0.807843 0.921569 1
0.529412 0.807843 0.921569 1
0.529412 0.807843 0.921569 1
0.529412 0.807843 0.921569 1
0.529412 0.807843 0.921569 1
0.529412 0.807843 0.921569 1
0.529412 0.807843 0.921569 1
0.529412 0.807843 0.921569 1
0.529412 0.807843 0.921569 1
0.529412 0.807843 0.921569 1
0.529412 0.807843 0.921569 1
0.529412 0.807843 0.921569 1
0.529412 0.807843 0.921569 1
0.529412 0.807843 0.921569 1
0.529412 0.807843 0.921569 1
0.529412 0.807843 0.921569 1
0.529412 0.807843 0.921569 1
0.529412 0.807843 0.921569 1
0.529412 0.807843 0.921569 1
0.529412 0.807843 0.921569 1
0.529412 0.807843 0.921569 1
0.529412 0.807843 0.921569 1
0.529412 0.807843 0.921569 1
0.529412 0.807843 0.921569 1
0.529412 0.807843 0.921569 1
0.529412 0.807843 0.921569 1
0.529412 0.807843 0.921569 1
0.529412 0.807843 0.921569 1
0.529412 0.807843 0.921569 1
0.529412 0.807843 0.921569 1
0.529412 0.807843 0.921569 1
0.529412 0.807843 0.921569 1
0.529412 0.807843 0.921569 1
0.529412 0.807843 0.921569 1
0.529412 0.807843 0.921569 1
0.529412 0.807843 0.921569 1
0.529412 0.807843 0.921569 1
0.529412 0.807843 0.921569 1
0.529412 0.807843 0.921569 1
0.529412 0.807843 0.921569 1
0.529412 0.807843 0.921569 1
0.529412 0.807843 0.921569 1
0.529412 0.807843 0.921569 1
0.529412 0.807843 0.921569 1
0.529412 0.807843 0.921569 1
0.529412 0.807843 0.921569 1
0.529412 0.807843 0.921569 1
0.529412 0.807843 0.921569 1
0.529412 0.807843 0.921569 1
0.529412 0.807843 0.921569 1
0.529412 0.807843 0.921569 1
0.529412 0.807843 0.921569 1
0.529412 0.807843 0.921569 1
0.529412 0.807843 0.921569 1
0.529412 0.807843 0.921569 1
0.529412 0.807843 0.921569 1
0.529412 0.807843 0.921569 1
0.529412 0.807843 0.921569 1
0.529412 0.807843 0.921569 1
0.529412 0.807843 0.921569 1
0.529412 0.807843 0.921569 1
0.529412 0.807843 0.921569 1
0.529412 0.807843 0.921569 1
0.529412 0.807843 0.921569 1
0.529412 0.807843 0.921569 1
0.529412 0.807843 0.921569 1
0.529412 0.807843 0.921569 1
0.529412 0.807843 0.921569 1
0.529412 0.807843 0.921569 1
0.529412 0.807843 0.921569 1
0.529412 0.807843 0.921569 1
0.529412 0.807843 0.921569 1
0.529412 0.807843 0.921569 1
0.529412 0.807843 0.921569 1
0.529412 0.807843 0.921569 1
0.529412 0.807843 0.921569 1
0.529412 0.807843 0.921569 1
0.529412 0.807843 0.921569 1
0.529412 0.807843 0.921569 1
0.529412 0.807843 0.921569 1
0.529412 0.807843 0.921569 1
0.529412 0.807843 0.921569 1
0.529412 0.807843 0.921569 1
0.529412 0.807843 0.921569 1
0.529412 0.807843 0.921569 1
0.529412 0.807843 0.921569 1
0.529412 0.807843 0.921569 1
0.529412 0.807843 0.921569 1
0.529412 0.807843 0.921569 1
0.529412 0.807843 0.921569 1
0.529412 0.807843 0.921569 1
0.529412 0.807843 0.921569 1
0.529412 0.807843 0.921569 1
0.529412 0.807843 0.921569 1
0.529412 0.807843 0.921569 1
0.529412 0.807843 0.921569 1
0.529412 0.807843 0.921569 1
0.529412 0.807843 0.921569 1
0.529412 0.807843 0.921569 1
0.529412 0.807843 0.921569 1
0.529412 0.807843 0.921569 1
0.529412 0.807843 0.921569 1
0.529412 0.807843 0.921569 1
0.529412 0.807843 0.921569 1
0.529412 0.807843 0.921569 1
0.529412 0.807843 0.921569 1
0.529412 0.807843 0.921569 1
0.529412 0.807843 0.921569 1
0.529412 0.807843 0.921569 1
0.529412 0.807843 0.921569 1
0.529412 0.807843 0.921569 1
0.529412 0.807843 0.921569 1
0.529412 0.807843 0.921569 1
0.529412 0.807843 0.921569 1
0.529412 0.807843 0.921569 1
0.529412 0.807843 0.921569 1
0.529412 0.807843 0.921569 1
0.529412 0.807843 0.921569 1
0.529412 0.807843 0.921569 1
0.529412 0.807843 0.921569 1
0.529412 0.807843 0.921569 1
0.529412 0.807843 0.921569 1
0.529412 0.807843 0.921569 1
0.529412 0.807843 0.921569 1
0.529412 0.807843 0.921569 1
0.529412 0.807843 0.921569 1
0.529412 0.807843 0.921569 1
0.529412 0.807843 0.921569 1
0.529412 0.807843 0.921569 1
0.529412 0.807843 0.921569 1
0.529412 0.807843 0.921569 1
0.529412 0.807843 0.921569 1
0.529412 0.807843 0.921569 1
0.529412 0.807843 0.921569 1
0.529412 0.807843 0.921569 1
0.529412 0.807843 0.921569 1
0.529412 0.807843 0.921569 1
0.529412 0.807843 0.921569 1
0.529412 0.807843 0.921569 1
0.529412 0.807843 0.921569 1
0.529412 0.807843 0.921569 1
0.529412 0.807843 0.921569 1
0.529412 0.807843 0.921569 1
0.529412 0.807843 0.921569 1
0.529412 0.807843 0.921569 1
0.529412 0.807843 0.921569 1
0.529412 0.807843 0.921569 1
0.529412 0.807843 0.921569 1
0.529412 0.807843 0.921569 1
0.529412 0.807843 0.921569 1
0.529412 0.807843 0.921569 1
0.529412 0.807843 0.921569 1
0.529412 0.807843 0.921569 1
0.529412 0.807843 0.921569 1
0.529412 0.807843 0.921569 1
0.529412 0.807843 0.921569 1
0.529412 0.807843 0.921569 1
0.529412 0.807843 0.921569 1
0.529412 0.807843 0.921569 1
0.529412 0.807843 0.921569 1
0.529412 0.807843 0.921569 1
0.529412 0.807843 0.921569 1
0.529412 0.807843 0.921569 1
0.529412 0.807843 0.921569 1
0.529412 0.807843 0.921569 1
0.529412 0.807843 0.921569 1
0.529412 0.807843 0.921569 1
0.529412 0.807843 0.921569 1
0.529412 0.807843 0.921569 1
0.529412 0.807843 0.921569 1
0.529412 0.807843 0.921569 1
0.529412 0.807843 0.921569 1
0.529412 0.807843 0.921569 1
0.529412 0.807843 0.921569 1
0.529412 0.807843 0.921569 1
0.529412 0.807843 0.921569 1
0.529412 0.807843 0.921569 1
0.529412 0.807843 0.921569 1
0.529412 0.807843 0.921569 1
0.529412 0.807843 0.921569 1
0.529412 0.807843 0.921569 1
0.529412 0.807843 0.921569 1
0.529412 0.807843 0.921569 1
0.529412 0.807843 0.921569 1
0.529412 0.807843 0.921569 1
0.529412 0.807843 0.921569 1
0.529412 0.807843 0.921569 1
0.529412 0.807843 0.921569 1
0.529412 0.807843 0.921569 1
0.529412 0.807843 0.921569 1
0.529412 0.807843 0.921569 1
0.529412 0.807843 0.921569 1
0.529412 0.807843 0.921569 1
0.529412 0.807843 0.921569 1
0.529412 0.807843 0.921569 1
0.529412 0.807843 0.921569 1
0.529412 0.807843 0.921569 1
0.529412 0.807843 0.921569 1
0.529412 0.807843 0.921569 1
0.529412 0.807843 0.921569 1
0.529412 0.807843 0.921569 1
0.529412 0.807843 0.921569 1
0.529412 0.807843 0.921569 1
0.529412 0.807843 0.921569 1
0.529412 0.807843 0.921569 1
0.529412 0.807843 0.921569 1
0.529412 0.807843 0.921569 1
0.529412 0.807843 0.921569 1
0.529412 0.807843 0.921569 1
0.529412 0.807843 0.921569 1
0.529412 0.807843 0.921569 1
0.529412 0.807843 0.921569 1
0.529412 0.807843 0.921569 1
0.529412 0.807843 0.921569 1
0.529412 0.807843 0.921569 1
0.529412 0.807843 0.921569 1
0.529412 0.807843 0.921569 1
0.529412 0.807843 0.921569 1
0.529412 0.807843 0.921569 1
0.529412 0.807843 0.921569 1
0.529412 0.807843 0.921569 1
0.529412 0.807843 0.921569 1
0.529412 0.807843 0.921569 1
0.529412 0.807843 0.921569 1
0.529412 0.807843 0.921569 1
0.529412 0.807843 0.921569 1
0.529412 0.807843 0.921569 1
0.529412 0.807843 0.921569 1
0.529412 0.807843 0.921569 1
0.529412 0.807843 0.921569 1
0.529412 0.807843 0.921569 1
0.529412 0.807843 0.921569 1
0.529412 0.807843 0.921569 1
0.529412 0.807843 0.921569 1
0.529412 0.807843 0.921569 1
0.529412 0.807843 0.921569 1
0.529412 0.807843 0.921569 1
0.529412 0.807843 0.921569 1
0.529412 0.807843 0.921569 1
0.529412 0.807843 0.921569 1
0.529412 0.807843 0.921569 1
0.529412 0.807843 0.921569 1
0.529412 0.807843 0.921569 1
0.529412 0.807843 0.921569 1
0.529412 0.807843 0.921569 1
0.529412 0.807843 0.921569 1
0.529412 0.807843 0.921569 1
0.529412 0.807843 0.921569 1
0.529412 0.807843 0.921569 1
0.529412 0.807843 0.921569 1
0.529412 0.807843 0.921569 1
0.529412 0.807843 0.921569 1
0.529412 0.807843 0.921569 1
0.529412 0.807843 0.921569 1
0.529412 0.807843 0.921569 1
0.529412 0.807843 0.921569 1
0.529412 0.807843 0.921569 1
0.529412 0.807843 0.921569 1
0.529412 0.807843 0.921569 1
0.529412 0.807843 0.921569 1
0.529412 0.807843 0.921569 1
0.529412 0.807843 0.921569 1
0.529412 0.807843 0.921569 1
0.529412 0.807843 0.921569 1
0.529412 0.807843 0.921569 1
0.529412 0.807843 0.921569 1
0.529412 0.807843 0.921569 1
0.529412 0.807843 0.921569 1
0.529412 0.807843 0.921569 1
0.529412 0.807843 0.921569 1
0.529412 0.807843 0.921569 1
0.529412 0.807843 0.921569 1
0.529412 0.807843 0.921569 1
0.529412 0.807843 0.921569 1
0.529412 0.807843 0.921569 1
0.529412 0.807843 0.921569 1
0.529412 0.807843 0.921569 1
0.529412 0.807843 0.921569 1
0.529412 0.807843 0.921569 1
0.529412 0.807843 0.921569 1
0.529412 0.807843 0.921569 1
0.529412 0.807843 0.921569 1
0.529412 0.807843 0.921569 1
0.529412 0.807843 0.921569 1
0.529412 0.807843 0.921569 1
0.529412 0.807843 0.921569 1
0.529412 0.807843 0.921569 1
0.529412 0.807843 0.921569 1
0.529412 0.807843 0.921569 1
0.529412 0.807843 0.921569 1
0.529412 0.807843 0.921569 1
0.529412 0.807843 0.921569 1
0.529412 0.807843 0.921569 1
0.529412 0.807843 0.921569 1
0.529412 0.807843 0.921569 1
0.529412 0.807843 0.921569 1
0.529412 0.807843 0.921569 1
0.529412 0.807843 0.921569 1
0.529412 0.807843 0.921569 1
0.529412 0.807843 0.921569 1

