# vtk DataFile Version 3.0
Gocad TSurf to VTK
ASCII
DATASET POLYDATA
POINTS 714 float
21568900.000 4580560.000 -1155.000
21569000.000 4580572.500 -1148.750
21569300.000 4580902.500 -1283.750
21569300.000 4580805.000 -1232.500
21569300.000 4581000.000 -1335.000
21568900.000 4580485.000 -1100.000
21568900.000 4580410.000 -1045.000
21568600.000 4580035.000 -1028.750
21568700.000 4580110.000 -997.500
21568500.000 4579960.000 -1060.000
21568550.000 4579970.000 -1008.750
21568625.000 4580607.500 -1213.750
21568725.000 4580700.000 -1248.750
21568325.000 4580157.500 -1142.500
21568350.000 4580655.000 -1272.500
21568550.000 4580840.000 -1342.500
21568150.000 4580355.000 -1225.000
21568075.000 4580702.500 -1331.250
21568375.000 4580980.000 -1436.250
21567975.000 4580552.500 -1307.500
21567800.000 4580750.000 -1390.000
21568200.000 4581120.000 -1530.000
21568475.000 4581090.000 -1481.250
21568900.000 4581970.000 -1695.000
21569000.000 4581727.500 -1605.000
21568750.000 4581060.000 -1432.500
21569100.000 4581852.500 -1657.500
21569300.000 4581735.000 -1620.000
21569200.000 4581980.000 -1685.000
21569600.000 4582730.000 -1735.000
21569725.000 4582550.000 -1715.000
21569500.000 4581990.000 -1675.000
21569800.000 4582660.000 -1693.750
21570000.000 4582590.000 -1652.500
21570175.000 4583117.500 -1675.000
21570250.000 4582895.000 -1640.000
21570100.000 4583340.000 -1710.000
21570275.000 4583245.000 -1627.500
21570450.000 4583150.000 -1545.000
21570350.000 4583345.000 -1561.250
21570900.000 4584190.000 -1530.000
21570950.000 4583982.500 -1426.250
21570600.000 4583350.000 -1412.500
21571025.000 4584065.000 -1398.750
21571150.000 4583940.000 -1267.500
21571075.000 4584150.000 -1378.750
21571600.000 4584697.500 -1202.500
21571600.000 4584475.000 -1110.000
21571600.000 4584920.000 -1295.000
21571700.000 4584812.500 -1177.500
21571800.000 4584705.000 -1060.000
21571775.000 4584932.500 -1125.000
21571850.000 4584785.000 -1025.000
21571700.000 4585080.000 -1225.000
21571925.000 4584637.500 -925.000
21571900.000 4584597.500 -942.500
21572000.000 4584490.000 -825.000
21571600.000 4584252.500 -1017.500
21571250.000 4584110.000 -1227.500
21571600.000 4584030.000 -925.000
21571425.000 4584070.000 -1076.250
21572050.000 4584310.000 -756.250
21571750.000 4583965.000 -831.250
21572100.000 4584130.000 -687.500
21571650.000 4583872.500 -851.250
21571700.000 4583715.000 -777.500
21571400.000 4583690.000 -1005.000
21571500.000 4583617.500 -911.250
21571275.000 4583815.000 -1136.250
21571050.000 4583567.500 -1218.750
21571000.000 4583775.000 -1322.500
21571100.000 4583360.000 -1115.000
21570850.000 4583355.000 -1263.750
21571275.000 4583370.000 -993.750
21571150.000 4583227.500 -1028.750
21571450.000 4583380.000 -872.500
21571200.000 4583095.000 -942.500
21571600.000 4583545.000 -817.500
21571625.000 4583390.000 -751.250
21571750.000 4583557.500 -703.750
21571700.000 4583472.500 -723.750
21571900.000 4583900.000 -737.500
21572050.000 4583835.000 -643.750
21572150.000 4583950.000 -618.750
21572200.000 4583770.000 -550.000
21571800.000 4583400.000 -630.000
21572200.000 4583620.000 -550.000
21571900.000 4583342.500 -610.000
21572250.000 4583677.500 -542.500
21572300.000 4583585.000 -535.000
21572200.000 4583470.000 -550.000
21572350.000 4583492.500 -527.500
21572200.000 4583320.000 -550.000
21572000.000 4583285.000 -590.000
21572400.000 4583400.000 -520.000
21572200.000 4583170.000 -550.000
21572100.000 4583227.500 -570.000
21572325.000 4583122.500 -553.750
21572250.000 4583057.500 -542.500
21572475.000 4583295.000 -531.250
21572450.000 4583075.000 -557.500
21572300.000 4582945.000 -535.000
21572550.000 4583190.000 -542.500
21572575.000 4583027.500 -561.250
21572350.000 4582832.500 -527.500
21572625.000 4583085.000 -553.750
21572700.000 4582980.000 -565.000
21572400.000 4582720.000 -520.000
21572600.000 4582650.000 -520.000
21572500.000 4582545.000 -533.750
21572825.000 4582845.000 -553.750
21572800.000 4582580.000 -520.000
21572600.000 4582370.000 -547.500
21572950.000 4582710.000 -542.500
21573000.000 4582510.000 -520.000
21572700.000 4582195.000 -561.250
21573075.000 4582575.000 -531.250
21573200.000 4582440.000 -520.000
21572800.000 4582020.000 -575.000
21573175.000 4582265.000 -533.750
21572875.000 4581950.000 -575.000
21573275.000 4582365.000 -517.500
21573350.000 4582290.000 -515.000
21573150.000 4582090.000 -547.500
21573425.000 4582215.000 -512.500
21573125.000 4581915.000 -561.250
21572950.000 4581880.000 -575.000
21573500.000 4582140.000 -510.000
21573100.000 4581740.000 -575.000
21573025.000 4581810.000 -575.000
21573475.000 4582050.000 -557.500
21573175.000 4581750.000 -606.250
21573525.000 4582115.000 -530.000
21573550.000 4582090.000 -550.000
21573450.000 4581960.000 -605.000
21573575.000 4582065.000 -570.000
21573250.000 4581760.000 -637.500
21573075.000 4581630.000 -620.000
21573425.000 4581870.000 -652.500
21573325.000 4581770.000 -668.750
21573600.000 4582040.000 -590.000
21573400.000 4581780.000 -700.000
21573500.000 4581790.000 -696.250
21573025.000 4581410.000 -710.000
21573000.000 4581300.000 -755.000
21573050.000 4581520.000 -665.000
21572950.000 4581360.000 -687.500
21572925.000 4581390.000 -653.750
21572975.000 4581330.000 -721.250
21572900.000 4581252.500 -741.250
21572700.000 4580870.000 -855.000
21572675.000 4580930.000 -816.250
21572925.000 4580847.500 -843.750
21572900.000 4580755.000 -888.750
21573150.000 4581170.000 -768.750
21573150.000 4580825.000 -832.500
21573175.000 4581277.500 -762.500
21573350.000 4581255.000 -770.000
21573475.000 4581637.500 -721.250
21573600.000 4581800.000 -692.500
21573550.000 4581495.000 -742.500
21573650.000 4581985.000 -613.750
21573700.000 4581930.000 -637.500
21573700.000 4581810.000 -688.750
21573750.000 4581875.000 -661.250
21573800.000 4581820.000 -685.000
21573625.000 4581352.500 -763.750
21573700.000 4581210.000 -785.000
21573525.000 4581232.500 -777.500
21573450.000 4580910.000 -796.250
21573600.000 4580780.000 -810.000
21573300.000 4581040.000 -782.500
21573375.000 4580802.500 -821.250
21573300.000 4580525.000 -956.250
21573500.000 4580410.000 -990.000
21573100.000 4580640.000 -922.500
21573050.000 4580435.000 -1020.000
21573225.000 4580217.500 -1102.500
21572875.000 4580652.500 -937.500
21572850.000 4580185.000 -1095.000
21572575.000 4580277.500 -1050.000
21573125.000 4580092.500 -1140.000
21573050.000 4580002.500 -1208.750
21573400.000 4580000.000 -1185.000
21573550.000 4580017.500 -1143.750
21573400.000 4579440.000 -1297.500
21573625.000 4580325.000 -997.500
21573700.000 4580035.000 -1102.500
21573650.000 4580447.500 -976.250
21573750.000 4580240.000 -1005.000
21573725.000 4580725.000 -841.250
21573800.000 4580485.000 -962.500
21573725.000 4580787.500 -835.000
21573850.000 4580795.000 -860.000
21573800.000 4581110.000 -816.250
21573900.000 4581010.000 -847.500
21573800.000 4581207.500 -816.250
21573900.000 4581205.000 -847.500
21573800.000 4581275.000 -798.750
21573875.000 4581732.500 -723.750
21573950.000 4581645.000 -762.500
21573900.000 4581340.000 -812.500
21574025.000 4581557.500 -801.250
21574000.000 4581405.000 -826.250
21574000.000 4581202.500 -878.750
21574100.000 4581470.000 -840.000
21574100.000 4581200.000 -910.000
21574175.000 4581402.500 -891.250
21574175.000 4581200.000 -943.750
21574175.000 4581200.000 -943.750
21574250.000 4581335.000 -942.500
21574250.000 4581200.000 -977.500
21574250.000 4581200.000 -977.500
21574325.000 4581267.500 -993.750
21574325.000 4581200.000 -1011.250
21574325.000 4581200.000 -1011.250
21574400.000 4581200.000 -1045.000
21574325.000 4581095.000 -1063.750
21574400.000 4581060.000 -1115.000
21574250.000 4581130.000 -1012.500
21574325.000 4580997.500 -1063.750
21574250.000 4580935.000 -1012.500
21574400.000 4580877.500 -1116.250
21574500.000 4580900.000 -1185.000
21574300.000 4580855.000 -1047.500
21574300.000 4580785.000 -1055.000
21574400.000 4580772.500 -1127.500
21574200.000 4580797.500 -982.500
21574200.000 4580832.500 -978.750
21574300.000 4580660.000 -1067.500
21574200.000 4580610.000 -1001.250
21574400.000 4580710.000 -1133.750
21574375.000 4580587.500 -1155.000
21574500.000 4580760.000 -1200.000
21574250.000 4580415.000 -1110.000
21574125.000 4580242.500 -1065.000
21574100.000 4580560.000 -935.000
21574000.000 4580070.000 -1020.000
21574100.000 4580810.000 -910.000
21573975.000 4580615.000 -903.750
21574175.000 4580872.500 -961.250
21574000.000 4580910.000 -878.750
21574175.000 4581165.000 -961.250
21573975.000 4580802.500 -885.000
21573850.000 4580670.000 -872.500
21573950.000 4580522.500 -948.750
21573875.000 4580155.000 -1012.500
21573850.000 4580052.500 -1061.250
21573800.000 4579860.000 -1112.500
21573600.000 4579650.000 -1205.000
21573200.000 4579230.000 -1390.000
21572900.000 4579425.000 -1362.500
21572850.000 4579347.500 -1415.000
21572775.000 4579255.000 -1452.500
21572600.000 4579620.000 -1335.000
21572500.000 4579465.000 -1440.000
21572700.000 4580005.000 -1232.500
21572300.000 4579815.000 -1307.500
21572350.000 4580007.500 -1256.250
21572150.000 4579582.500 -1465.000
21572000.000 4580010.000 -1280.000
21572350.000 4579280.000 -1515.000
21571925.000 4579305.000 -1577.500
21572675.000 4579152.500 -1497.500
21572150.000 4579075.000 -1605.000
21572650.000 4579105.000 -1490.000
21572600.000 4579052.500 -1462.500
21572100.000 4578980.000 -1590.000
21571625.000 4578997.500 -1712.500
21572000.000 4578875.000 -1535.000
21571550.000 4578855.000 -1690.000
21572550.000 4578992.500 -1428.750
21571900.000 4578755.000 -1467.500
21571400.000 4578697.500 -1607.500
21571250.000 4578517.500 -1506.250
21571000.000 4578730.000 -1790.000
21570800.000 4578520.000 -1680.000
21571100.000 4578920.000 -1820.000
21570975.000 4578790.000 -1773.750
21571500.000 4579330.000 -1640.000
21571125.000 4579025.000 -1782.500
21571800.000 4579700.000 -1490.000
21571525.000 4579452.500 -1588.750
21571900.000 4579962.500 -1318.750
21571950.000 4580032.500 -1266.250
21571750.000 4579730.000 -1476.250
21571800.000 4579915.000 -1357.500
[...]
POINT_DATA 714
COLOR_SCALARS GocadColor 4
1 0.74902 0.795026 1
1 0.74902 0.795026 1
1 0.74902 0.795026 1
1 0.74902 0.795026 1
1 0.74902 0.795026 1
1 0.74902 0.795026 1
1 0.74902 0.795026 1
1 0.74902 0.795026 1
1 0.74902 0.795026 1
1 0.74902 0.795026 1
1 0.74902 0.795026 1
1 0.74902 0.795026 1
1 0.74902 0.795026 1
1 0.74902 0.795026 1
1 0.74902 0.795026 1
1 0.74902 0.795026 1
1 0.74902 0.795026 1
1 0.74902 0.795026 1
1 0.74902 0.795026 1
1 0.74902 0.795026 1
1 0.74902 0.795026 1
1 0.74902 0.795026 1
1 0.74902 0.795026 1
1 0.74902 0.795026 1
1 0.74902 0.795026 1
1 0.74902 0.795026 1
1 0.74902 0.795026 1
1 0.74902 0.795026 1
1 0.74902 0.795026 1
1 0.74902 0.795026 1
1 0.74902 0.795026 1
1 0.74902 0.795026 1
1 0.74902 0.795026 1
1 0.74902 0.795026 1
1 0.74902 0.795026 1
1 0.74902 0.795026 1
1 0.74902 0.795026 1
1 0.74902 0.795026 1
1 0.74902 0.795026 1
1 0.74902 0.795026 1
1 0.74902 0.795026 1
1 0.74902 0.795026 1
1 0.74902 0.795026 1
1 0.74902 0.795026 1
1 0.74902 0.795026 1
1 0.74902 0.795026 1
1 0.74902 0.795026 1
1 0.74902 0.795026 1
1 0.74902 0.795026 1
1 0.74902 0.795026 1
1 0.74902 0.795026 1
1 0.74902 0.795026 1
1 0.74902 0.795026 1
1 0.74902 0.795026 1
1 0.74902 0.795026 1
1 0.74902 0.795026 1
1 0.74902 0.795026 1
1 0.74902 0.795026 1
1 0.74902 0.795026 1
1 0.74902 0.795026 1
1 0.74902 0.795026 1
1 0.74902 0.795026 1
1 0.74902 0.795026 1
1 0.74902 0.795026 1
1 0.74902 0.795026 1
1 0.74902 0.795026 1
1 0.74902 0.795026 1
1 0.74902 0.795026 1
1 0.74902 0.795026 1
1 0.74902 0.795026 1
1 0.74902 0.795026 1
1 0.74902 0.795026 1
1 0.74902 0.795026 1
1 0.74902 0.795026 1
1 0.74902 0.795026 1
1 0.74902 0.795026 1
1 0.74902 0.795026 1
1 0.74902 0.795026 1
1 0.74902 0.795026 1
1 0.74902 0.795026 1
1 0.74902 0.795026 1
1 0.74902 0.795026 1
1 0.74902 0.795026 1
1 0.74902 0.795026 1
1 0.74902 0.795026 1
1 0.74902 0.795026 1
1 0.74902 0.795026 1
1 0.74902 0.795026 1
1 0.74902 0.795026 1
1 0.74902 0.795026 1
1 0.74902 0.795026 1
1 0.74902 0.795026 1
1 0.74902 0.795026 1
1 0.74902 0.795026 1
1 0.74902 0.795026 1
1 0.74902 0.795026 1
1 0.74902 0.795026 1
1 0.74902 0.795026 1
1 0.74902 0.795026 1
1 0.74902 0.795026 1
1 0.74902 0.795026 1
1 0.74902 0.795026 1
1 0.74902 0.795026 1
1 0.74902 0.795026 1
1 0.74902 0.795026 1
1 0.74902 0.795026 1
1 0.74902 0.795026 1
1 0.74902 0.795026 1
1 0.74902 0.795026 1
1 0.74902 0.795026 1
1 0.74902 0.795026 1
1 0.74902 0.795026 1
1 0.74902 0.795026 1
1 0.74902 0.795026 1
1 0.74902 0.795026 1
1 0.74902 0.795026 1
1 0.74902 0.795026 1
1 0.74902 0.795026 1
1 0.74902 0.795026 1
1 0.74902 0.795026 1
1 0.74902 0.795026 1
1 0.74902 0.795026 1
1 0.74902 0.795026 1
1 0.74902 0.795026 1
1 0.74902 0.795026 1
1 0.74902 0.795026 1
1 0.74902 0.795026 1
1 0.74902 0.795026 1
1 0.74902 0.795026 1
1 0.74902 0.795026 1
1 0.74902 0.795026 1
1 0.74902 0.795026 1
1 0.74902 0.795026 1
1 0.74902 0.795026 1
1 0.74902 0.795026 1
1 0.74902 0.795026 1
1 0.74902 0.795026 1
1 0.74902 0.795026 1
1 0.74902 0.795026 1
1 0.74902 0.795026 1
1 0.74902 0.795026 1
1 0.74902 0.795026 1
1 0.74902 0.795026 1
1 0.74902 0.795026 1
1 0.74902 0.795026 1
1 0.74902 0.795026 1
1 0.74902 0.795026 1
1 0.74902 0.795026 1
1 0.74902 0.795026 1
1 0.74902 0.795026 1
1 0.74902 0.795026 1
1 0.74902 0.795026 1
1 0.74902 0.795026 1
1 0.74902 0.795026 1
1 0.74902 0.795026 1
1 0.74902 0.795026 1
1 0.74902 0.795026 1
1 0.74902 0.795026 1
1 0.74902 0.795026 1
1 0.74902 0.795026 1
1 0.74902 0.795026 1
1 0.74902 0.795026 1
1 0.74902 0.795026 1
1 0.74902 0.795026 1
1 0.74902 0.795026 1
1 0.74902 0.795026 1
1 0.74902 0.795026 1
1 0.74902 0.795026 1
1 0.74902 0.795026 1
1 0.74902 0.795026 1
1 0.74902 0.795026 1
1 0.74902 0.795026 1
1 0.74902 0.795026 1
1 0.74902 0.795026 1
1 0.74902 0.795026 1
1 0.74902 0.795026 1
1 0.74902 0.795026 1
1 0.74902 0.795026 1
1 0.74902 0.795026 1
1 0.74902 0.795026 1
1 0.74902 0.795026 1
1 0.74902 0.795026 1
1 0.74902 0.795026 1
1 0.74902 0.795026 1
1 0.74902 0.795026 1
1 0.74902 0.795026 1
1 0.74902 0.795026 1
1 0.74902 0.795026 1
1 0.74902 0.795026 1
1 0.74902 0.795026 1
1 0.74902 0.795026 1
1 0.74902 0.795026 1
1 0.74902 0.795026 1
1 0.74902 0.795026 1
1 0.74902 0.795026 1
1 0.74902 0.795026 1
1 0.74902 0.795026 1
1 0.74902 0.795026 1
1 0.74902 0.795026 1
1 0.74902 0.795026 1
1 0.74902 0.795026 1
1 0.74902 0.795026 1
1 0.74902 0.795026 1
1 0.74902 0.795026 1
1 0.74902 0.795026 1
1 0.74902 0.795026 1
1 0.74902 0.795026 1
1 0.74902 0.795026 1
1 0.74902 0.795026 1
1 0.74902 0.795026 1
1 0.74902 0.795026 1
1 0.74902 0.795026 1
1 0.74902 0.795026 1
1 0.74902 0.795026 1
1 0.74902 0.795026 1
1 0.74902 0.795026 1
1 0.74902 0.795026 1
1 0.74902 0.795026 1
1 0.74902 0.795026 1
1 0.74902 0.795026 1
1 0.74902 0.795026 1
1 0.74902 0.795026 1
1 0.74902 0.795026 1
1 0.74902 0.795026 1
1 0.74902 0.795026 1
1 0.74902 0.795026 1
1 0.74902 0.795026 1
1 0.74902 0.795026 1
1 0.74902 0.795026 1
1 0.74902 0.795026 1
1 0.74902 0.795026 1
1 0.74902 0.795026 1
1 0.74902 0.795026 1
1 0.74902 0.795026 1
1 0.74902 0.795026 1
1 0.74902 0.795026 1
1 0.74902 0.795026 1
1 0.74902 0.795026 1
1 0.74902 0.795026 1
1 0.74902 0.795026 1
1 0.74902 0.795026 1
1 0.74902 0.795026 1
1 0.74902 0.795026 1
1 0.74902 0.795026 1
1 0.74902 0.795026 1
1 0.74902 0.795026 1
1 0.74902 0.795026 1
1 0.74902 0.795026 1
1 0.74902 0.795026 1
1 0.74902 0.795026 1
1 0.74902 0.795026 1
1 0.74902 0.795026 1
1 0.74902 0.795026 1
1 0.74902 0.795026 1
1 0.74902 0.795026 1
1 0.74902 0.795026 1
1 0.74902 0.795026 1
1 0.74902 0.795026 1
1 0.74902 0.795026 1
1 0.74902 0.795026 1
1 0.74902 0.795026 1
1 0.74902 0.795026 1
1 0.74902 0.795026 1
1 0.74902 0.795026 1
1 0.74902 0.795026 1
1 0.74902 0.795026 1
1 0.74902 0.795026 1
1 0.74902 0.795026 1
1 0.74902 0.795026 1
1 0.74902 0.795026 1
1 0.74902 0.795026 1
1 0.74902 0.795026 1
1 0.74902 0.795026 1
1 0.74902 0.795026 1
1 0.74902 0.795026 1
1 0.74902 0.795026 1
1 0.74902 0.795026 1
1 0.74902 0.795026 1
1 0.74902 0.795026 1
1 0.74902 0.795026 1
1 0.74902 0.795026 1
1 0.74902 0.795026 1
1 0.74902 0.795026 1
1 0.74902 0.795026 1
1 0.74902 0.795026 1
1 0.74902 0.795026 1
1 0.74902 0.795026 1
1 0.74902 0.795026 1
1 0.74902 0.795026 1
1 0.74902 0.795026 1
1 0.74902 0.795026 1
1 0.74902 0.795026 1
1 0.74902 0.795026 1
1 0.74902 0.795026 1
1 0.74902 0.795026 1
1 0.74902 0.795026 1
1 0.74902 0.795026 1
1 0.74902 0.795026 1
1 0.74902 0.795026 1
1 0.74902 0.795026 1
1 0.74902 0.795026 1
1 0.74902 0.795026 1
1 0.74902 0.795026 1
1 0.74902 0.795026 1
1 0.74902 0.795026 1
1 0.74902 0.795026 1
1 0.74902 0.795026 1
1 0.74902 0.795026 1
1 0.74902 0.795026 1
1 0.74902 0.795026 1
1 0.74902 0.795026 1
1 0.74902 0.795026 1
1 0.74902 0.795026 1
1 0.74902 0.795026 1
1 0.74902 0.795026 1
1 0.74902 0.795026 1
1 0.74902 0.795026 1
1 0.74902 0.795026 1
1 0.74902 0.795026 1
1 0.74902 0.795026 1
1 0.74902 0.795026 1
1 0.74902 0.795026 1
1 0.74902 0.795026 1
1 0.74902 0.795026 1
1 0.74902 0.795026 1
1 0.74902 0.795026 1
1 0.74902 0.795026 1
1 0.74902 0.795026 1
1 0.74902 0.795026 1
1 0.74902 0.795026 1
1 0.74902 0.795026 1
1 0.74902 0.795026 1
1 0.74902 0.795026 1
1 0.74902 0.795026 1
1 0.74902 0.795026 1
1 0.74902 0.795026 1
1 0.74902 0.795026 1
1 0.74902 0.795026 1
1 0.74902 0.795026 1
1 0.74902 0.795026 1
1 0.74902 0.795026 1
1 0.74902 0.795026 1
1 0.74902 0.795026 1
1 0.74902 0.795026 1
1 0.74902 0.795026 1
1 0.74902 0.795026 1
1 0.74902 0.795026 1
1 0.74902 0.795026 1
1 0.74902 0.795026 1
1 0.74902 0.795026 1
1 0.74902 0.795026 1
1 0.74902 0.795026 1
1 0.74902 0.795026 1
1 0.74902 0.795026 1
1 0.74902 0.795026 1
1 0.74902 0.795026 1
1 0.74902 0.795026 1
1 0.74902 0.795026 1
1 0.74902 0.795026 1
1 0.74902 0.795026 1
1 0.74902 0.795026 1
1 0.74902 0.795026 1
1 0.74902 0.795026 1
1 0.74902 0.795026 1
1 0.74902 0.795026 1
1 0.74902 0.795026 1
1 0.74902 0.795026 1
1 0.74902 0.795026 1
1 0.74902 0.795026 1
1 0.74902 0.795026 1
1 0.74902 0.795026 1
1 0.74902 0.795026 1
1 0.74902 0.795026 1
1 0.74902 0.795026 1
1 0.74902 0.795026 1
1 0.74902 0.795026 1
1 0.74902 0.795026 1
1 0.74902 0.795026 1
1 0.74902 0.795026 1
1 0.74902 0.795026 1
1 0.74902 0.795026 1
1 0.74902 0.795026 1
1 0.74902 0.795026 1
1 0.74902 0.795026 1
1 0.74902 0.795026 1
1 0.74902 0.795026 1
1 0.74902 0.795026 1
1 0.74902 0.795026 1
1 0.74902 0.795026 1
1 0.74902 0.795026 1
1 0.74902 0.795026 1
1 0.74902 0.795026 1
1 0.74902 0.795026 1
1 0.74902 0.795026 1
1 0.74902 0.795026 1
1 0.74902 0.795026 1
1 0.74902 0.795026 1
1 0.74902 0.795026 1
1 0.74902 0.795026 1
1 0.74902 0.795026 1
1 0.74902 0.795026 1
1 0.74902 0.795026 1
1 0.74902 0.795026 1
1 0.74902 0.795026 1
1 0.74902 0.795026 1
1 0.74902 0.795026 1
1 0.74902 0.795026 1
1 0.74902 0.795026 1
1 0.74902 0.795026 1
1 0.74902 0.795026 1
1 0.74902 0.795026 1
1 0.74902 0.795026 1
1 0.74902 0.795026 1
1 0.74902 0.795026 1
1 0.74902 0.795026 1
1 0.74902 0.795026 1
1 0.74902 0.795026 1
1 0.74902 0.795026 1
1 0.74902 0.795026 1
1 0.74902 0.795026 1
1 0.74902 0.795026 1
1 0.74902 0.795026 1
1 0.74902 0.795026 1
1 0.74902 0.795026 1
1 0.74902 0.795026 1
1 0.74902 0.795026 1
1 0.74902 0.795026 1
1 0.74902 0.795026 1
1 0.74902 0.795026 1
1 0.74902 0.795026 1
1 0.74902 0.795026 1
1 0.74902 0.795026 1
1 0.74902 0.795026 1
1 0.74902 0.795026 1
1 0.74902 0.795026 1
1 0.74902 0.795026 1
1 0.74902 0.795026 1
1 0.74902 0.795026 1
1 0.74902 0.795026 1
1 0.74902 0.795026 1
1 0.74902 0.795026 1
1 0.74902 0.795026 1
1 0.74902 0.795026 1
1 0.74902 0.795026 1
1 0.74902 0.795026 1
1 0.74902 0.795026 1
1 0.74902 0.795026 1
1 0.74902 0.795026 1
1 0.74902 0.795026 1
1 0.74902 0.795026 1
1 0.74902 0.795026 1
1 0.74902 0.795026 1
1 0.74902 0.795026 1
1 0.74902 0.795026 1
1 0.74902 0.795026 1
1 0.74902 0.795026 1
1 0.74902 0.795026 1
1 0.74902 0.795026 1
1 0.74902 0.795026 1
1 0.74902 0.795026 1
1 0.74902 0.795026 1
1 0.74902 0.795026 1
1 0.74902 0.795026 1
1 0.74902 0.795026 1
1 0.74902 0.795026 1
1 0.74902 0.795026 1
1 0.74902 0.795026 1
1 0.74902 0.795026 1
1 0.74902 0.795026 1
1 0.74902 0.795026 1
1 0.74902 0.795026 1
1 0.74902 0.795026 1
1 0.74902 0.795026 1
1 0.74902 0.795026 1
1 0.74902 0.795026 1
1 0.74902 0.795026 1
1 0.74902 0.795026 1
1 0.74902 0.795026 1
1 0.74902 0.795026 1
1 0.74902 0.795026 1
1 0.74902 0.795026 1
1 0.74902 0.795026 1
1 0.74902 0.795026 1
1 0.74902 0.795026 1
1 0.74902 0.795026 1
1 0.74902 0.795026 1
1 0.74902 0.795026 1
1 0.74902 0.795026 1
1 0.74902 0.795026 1
1 0.74902 0.795026 1
1 0.74902 0.795026 1
1 0.74902 0.795026 1
1 0.74902 0.795026 1
1 0.74902 0.795026 1
1 0.74902 0.795026 1
1 0.74902 0.795026 1
1 0.74902 0.795026 1
1 0.74902 0.795026 1
1 0.74902 0.795026 1
1 0.74902 0.795026 1
1 0.74902 0.795026 1
1 0.74902 0.795026 1
1 0.74902 0.795026 1
1 0.74902 0.795026 1
1 0.74902 0.795026 1
1 0.74902 0.795026 1
1 0.74902 0.795026 1
1 0.74902 0.795026 1
1 0.74902 0.795026 1
1 0.74902 0.795026 1
1 0.74902 0.795026 1
1 0.74902 0.795026 1
1 0.74902 0.795026 1
1 0.74902 0.795026 1
1 0.74902 0.795026 1
1 0.74902 0.795026 1
1 0.74902 0.795026 1
1 0.74902 0.795026 1
1 0.74902 0.795026 1
1 0.74902 0.795026 1
1 0.74902 0.795026 1
1 0.74902 0.795026 1
1 0.74902 0.795026 1
1 0.74902 0.795026 1
1 0.74902 0.795026 1
1 0.74902 0.795026 1
1 0.74902 0.795026 1
1 0.74902 0.795026 1
1 0.74902 0.795026 1
1 0.74902 0.795026 1
1 0.74902 0.795026 1
1 0.74902 0.795026 1
1 0.74902 0.795026 1
1 0.74902 0.795026 1
1 0.74902 0.795026 1
1 0.74902 0.795026 1
1 0.74902 0.795026 1
1 0.74902 0.795026 1
1 0.74902 0.795026 1
1 0.74902 0.795026 1
1 0.74902 0.795026 1
1 0.74902 0.795026 1
1 0.74902 0.795026 1
1 0.74902 0.795026 1
1 0.74902 0.795026 1
1 0.74902 0.795026 1
1 0.74902 0.795026 1
1 0.74902 0.795026 1
1 0.74902 0.795026 1
1 0.74902 0.795026 1
1 0.74902 0.795026 1
1 0.74902 0.795026 1
1 0.74902 0.795026 1
1 0.74902 0.795026 1
1 0.74902 0.795026 1
1 0.74902 0.795026 1
1 0.74902 0.795026 1
1 0.74902 0.795026 1
1 0.74902 0.795026 1
1 0.74902 0.795026 1
1 0.74902 0.795026 1
1 0.74902 0.795026 1
1 0.74902 0.795026 1
1 0.74902 0.795026 1
1 0.74902 0.795026 1
1 0.74902 0.795026 1
1 0.74902 0.795026 1
1 0.74902 0.795026 1
1 0.74902 0.795026 1
1 0.74902 0.795026 1
1 0.74902 0.795026 1
1 0.74902 0.795026 1
1 0.74902 0.795026 1
1 0.74902 0.795026 1
1 0.74902 0.795026 1
1 0.74902 0.795026 1
1 0.74902 0.795026 1
1 0.74902 0.795026 1
1 0.74902 0.795026 1
1 0.74902 0.795026 1
1 0.74902 0.795026 1
1 0.74902 0.795026 1
1 0.74902 0.795026 1
1 0.74902 0.795026 1
1 0.74902 0.795026 1
1 0.74902 0.795026 1
1 0.74902 0.795026 1
1 0.74902 0.795026 1
1 0.74902 0.795026 1
1 0.74902 0.795026 1
1 0.74902 0.795026 1
1 0.74902 0.795026 1
1 0.74902 0.795026 1
1 0.74902 0.795026 1
1 0.74902 0.795026 1
1 0.74902 0.795026 1
1 0.74902 0.795026 1
1 0.74902 0.795026 1
1 0.74902 0.795026 1
1 0.74902 0.795026 1
1 0.74902 0.795026 1
1 0.74902 0.795026 1
1 0.74902 0.795026 1
1 0.74902 0.795026 1
1 0.74902 0.795026 1
1 0.74902 0.795026 1
1 0.74902 0.795026 1
1 0.74902 0.795026 1
1 0.74902 0.795026 1
1 0.74902 0.795026 1
1 0.74902 0.795026 1
1 0.74902 0.795026 1
1 0.74902 0.795026 1
1 0.74902 0.795026 1
1 0.74902 0.795026 1
1 0.74902 0.795026 1
1 0.74902 0.795026 1
1 0.74902 0.795026 1
1 0.74902 0.795026 1
1 0.74902 0.795026 1
1 0.74902 0.795026 1
1 0.74902 0.795026 1
1 0.74902 0.795026 1
1 0.74902 0.795026 1
1 0.74902 0.795026 1
1 0.74902 0.795026 1
1 0.74902 0.795026 1
1 0.74902 0.795026 1
1 0.74902 0.795026 1
1 0.74902 0.795026 1
1 0.74902 0.795026 1
1 0.74902 0.795026 1
1 0.74902 0.795026 1
1 0.74902 0.795026 1
1 0.74902 0.795026 1
1 0.74902 0.795026 1
1 0.74902 0.795026 1
1 0.74902 0.795026 1
1 0.74902 0.795026 1
1 0.74902 0.795026 1
1 0.74902 0.795026 1
1 0.74902 0.795026 1
1 0.74902 0.795026 1
1 0.74902 0.795026 1
1 0.74902 0.795026 1
1 0.74902 0.795026 1
1 0.74902 0.795026 1
1 0.74902 0.795026 1
1 0.74902 0.795026 1
1 0.74902 0.795026 1
1 0.74902 0.795026 1
1 0.74902 0.795026 1
1 0.74902 0.795026 1
1 0.74902 0.795026 1
1 0.74902 0.795026 1
1 0.74902 0.795026 1
1 0.74902 0.795026 1
1 0.74902 0.795026 1
1 0.74902 0.795026 1
1 0.74902 0.795026 1
1 0.74902 0.795026 1
1 0.74902 0.795026 1
1 0.74902 0.795026 1
1 0.74902 0.795026 1
1 0.74902 0.795026 1
1 0.74902 0.795026 1
1 0.74902 0.795026 1
1 0.74902 0.795026 1
1 0.74902 0.795026 1
1 0.74902 0.795026 1
1 0.74902 0.795026 1
1 0.74902 0.795026 1
1 0.74902 0.795026 1
1 0.74902 0.795026 1
1 0.74902 0.795026 1
1 0.74902 0.795026 1
1 0.74902 0.795026 1
1 0.74902 0.795026 1
1 0.74902 0.795026 1
1 0.74902 0.795026 1
1 0.74902 0.795026 1
1 0.74902 0.795026 1
1 0.74902 0.795026 1
1 0.74902 0.795026 1
1 0.74902 0.795026 1
1 0.74902 0.795026 1
1 0.74902 0.795026 1
1 0.74902 0.795026 1
1 0.74902 0.795026 1
1 0.74902 0.795026 1
1 0.74902 0.795026 1
1 0.74902 0.795026 1
1 0.74902 0.795026 1
1 0.74902 0.795026 1
1 0.74902 0.795026 1
1 0.74902 0.795026 1
1 0.74902 0.795026 1
1 0.74902 0.795026 1
1 0.74902 0.795026 1
1 0.74902 0.795026 1
1 0.74902 0.795026 1
1 0.74902 0.795026 1
1 0.74902 0.795026 1
1 0.74902 0.795026 1
1 0.74902 0.795026 1
1 0.74902 0.795026 1
1 0.74902 0.795026 1
1 0.74902 0.795026 1
1 0.74902 0.795026 1
1 0.74902 0.795026 1
1 0.74902 0.795026 1
1 0.74902 0.795026 1
1 0.74902 0.795026 1
1 0.74902 0.795026 1

