# vtk DataFile Version 3.0
Gocad TSurf to VTK
ASCII
DATASET POLYDATA
POINTS 2123 float
21581700.000 4571645.000 -376.250
21581700.000 4571870.000 -375.000
21581925.000 4571792.500 -326.250
21581850.000 4571965.000 -417.500
21582025.000 4571537.500 -221.250
21581600.000 4571805.000 -425.000
21581500.000 4571760.000 -390.000
21581550.000 4571995.000 -445.000
21581825.000 4572175.000 -530.000
21581275.000 4572285.000 -595.000
21581950.000 4572040.000 -460.000
21582025.000 4572310.000 -526.250
21582075.000 4571905.000 -390.000
21582050.000 4572105.000 -460.000
21582275.000 4572050.000 -378.750
21582400.000 4571920.000 -305.000
21582150.000 4572180.000 -452.500
21582250.000 4572230.000 -410.000
21582175.000 4572385.000 -462.500
21582225.000 4572425.000 -413.750
21582475.000 4572175.000 -211.250
21582100.000 4572540.000 -515.000
21582000.000 4572965.000 -375.000
21581650.000 4572760.000 -695.000
21582350.000 4572922.500 -126.250
21581725.000 4573465.000 -298.750
21582500.000 4572770.000 -95.000
21583000.000 4573090.000 435.000
21582550.000 4572415.000 -110.000
21582800.000 4572357.500 205.000
21582600.000 4572050.000 -110.000
21582600.000 4571742.500 -68.750
21582750.000 4571855.000 171.250
21582400.000 4571720.000 -235.000
21582200.000 4571770.000 -320.000
21582400.000 4571620.000 -200.000
21582400.000 4571520.000 -165.000
21582300.000 4571645.000 -242.500
21582350.000 4571575.000 -203.750
21582300.000 4571537.500 -182.500
21582200.000 4571565.000 -200.000
21582100.000 4571290.000 -180.000
21582425.000 4571362.500 -137.500
21582050.000 4571455.000 -207.500
21582025.000 4571340.000 -218.750
21581950.000 4571390.000 -257.500
21581800.000 4571390.000 -290.000
21581800.000 4571290.000 -245.000
21581600.000 4571305.000 -255.000
21581700.000 4571250.000 -217.500
21581550.000 4571585.000 -335.000
21581250.000 4571390.000 -267.500
21581400.000 4571700.000 -397.500
21581300.000 4571845.000 -456.250
21581300.000 4571635.000 -425.000
21581150.000 4571747.500 -497.500
21580900.000 4571595.000 -447.500
21581200.000 4571990.000 -515.000
21581000.000 4571860.000 -570.000
21581050.000 4572142.500 -546.250
21581150.000 4572450.000 -675.000
21580900.000 4572045.000 -587.500
21580725.000 4571947.500 -552.500
21580900.000 4572295.000 -577.500
21580800.000 4572230.000 -605.000
21580825.000 4572515.000 -710.000
21581025.000 4572622.500 -755.000
21580750.000 4572447.500 -608.750
21580600.000 4572600.000 -640.000
21580700.000 4572690.000 -775.000
21580900.000 4572790.000 -835.000
21580450.000 4572702.500 -671.250
21580500.000 4572540.000 -530.000
21580600.000 4572812.500 -811.250
21580450.000 4572890.000 -780.000
21580800.000 4572922.500 -860.000
21580600.000 4573010.000 -862.500
21581200.000 4572970.000 -845.000
21581100.000 4573280.000 -835.000
21581250.000 4572757.500 -762.500
21581475.000 4572880.000 -753.750
21581300.000 4572545.000 -680.000
21581450.000 4572640.000 -722.500
21581625.000 4572500.000 -651.250
21581900.000 4572440.000 -600.000
21581400.000 4573090.000 -775.000
21581300.000 4573405.000 -632.500
21581250.000 4573182.500 -808.750
21581375.000 4573635.000 -426.250
21581875.000 4573952.500 17.500
21581150.000 4574020.000 -420.000
21580700.000 4573760.000 -810.000
21581050.000 4574477.500 -440.000
21580650.000 4573895.000 -782.500
21581750.000 4574205.000 -11.250
21581400.000 4574855.000 -160.000
21582350.000 4574212.500 371.250
21582050.000 4574520.000 272.500
21582350.000 4573867.500 327.500
21582500.000 4574115.000 407.500
21582450.000 4573245.000 115.000
21582925.000 4573755.000 488.750
21582750.000 4574077.500 482.500
21582700.000 4573405.000 380.000
21582850.000 4573247.500 407.500
21582900.000 4573505.000 457.500
21583050.000 4573590.000 497.500
21582950.000 4573297.500 446.250
21583175.000 4573425.000 506.250
21583300.000 4573260.000 515.000
21583650.000 4573300.000 491.250
21583475.000 4573625.000 537.500
21583550.000 4573060.000 445.000
21583350.000 4573102.500 508.750
21583700.000 4573150.000 452.500
21583850.000 4573230.000 320.000
21583750.000 4573000.000 413.750
21583375.000 4572745.000 476.250
21583500.000 4572630.000 490.000
21583400.000 4572945.000 502.500
21583250.000 4572865.000 462.500
21583125.000 4572982.500 448.750
21583025.000 4572905.000 441.250
21583050.000 4572720.000 447.500
21582950.000 4572655.000 370.000
21583075.000 4572535.000 453.750
21582900.000 4572220.000 305.000
21583150.000 4572297.500 477.500
21583600.000 4572185.000 365.000
21583050.000 4572070.000 455.000
21583000.000 4571940.000 475.000
21583325.000 4571987.500 481.250
21583175.000 4571897.500 466.250
21583450.000 4571930.000 342.500
21583600.000 4571875.000 205.000
21583350.000 4571835.000 432.500
21583200.000 4571740.000 412.500
21583325.000 4571652.500 377.500
21582950.000 4572060.000 382.500
21582925.000 4571712.500 286.250
21582650.000 4571512.500 -51.250
21582900.000 4571392.500 68.750
21582600.000 4571320.000 -102.500
21582700.000 4571385.000 -47.500
21582750.000 4571257.500 -43.750
21583100.000 4571170.000 0.000
21583400.000 4571252.500 136.250
21582900.000 4570850.000 -220.000
21582550.000 4570860.000 -86.250
21583300.000 4570795.000 -207.500
21583050.000 4570635.000 -227.500
21583275.000 4570632.500 -283.750
21582950.000 4570565.000 -207.500
21582750.000 4570585.000 -121.250
21583125.000 4570527.500 -231.250
21582800.000 4570460.000 -62.500
21583200.000 4570420.000 -235.000
21582600.000 4570450.000 47.500
21582900.000 4570210.000 55.000
21582400.000 4570560.000 51.250
21582100.000 4570455.000 252.500
21582100.000 4570810.000 -3.750
21582100.000 4570650.000 70.000
21582400.000 4571012.500 -86.250
21582100.000 4570970.000 -62.500
21582450.000 4571215.000 -110.000
21582300.000 4571100.000 -117.500
21582200.000 4571197.500 -148.750
21582100.000 4571130.000 -121.250
21581800.000 4571090.000 -155.000
21581875.000 4570980.000 -98.750
21581725.000 4570905.000 -117.500
21581750.000 4570745.000 7.500
21581600.000 4570990.000 -180.000
21581600.000 4571095.000 -205.000
21581650.000 4570822.500 -76.250
21581500.000 4570880.000 -125.000
21581425.000 4570942.500 -121.250
21581575.000 4570792.500 -23.750
21581400.000 4570840.000 -55.000
21581450.000 4570712.500 50.000
21581300.000 4570985.000 -82.500
21581200.000 4570935.000 -62.500
21581450.000 4571075.000 -147.500
21581425.000 4571172.500 -158.750
21581100.000 4571285.000 -222.500
21581500.000 4571130.000 -175.000
21581600.000 4571200.000 -230.000
21581750.000 4571170.000 -186.250
21581000.000 4571440.000 -335.000
21580850.000 4571325.000 -207.500
21580625.000 4571387.500 -277.500
21580500.000 4571520.000 -305.000
21580100.000 4571270.000 -85.000
21580800.000 4571750.000 -560.000
21580100.000 4571800.000 -562.500
21579950.000 4571442.500 -247.500
21580400.000 4571985.000 -690.000
21580550.000 4572100.000 -535.000
21580200.000 4572110.000 -755.000
21579900.000 4571940.000 -691.250
21580425.000 4572275.000 -522.500
21580200.000 4572370.000 -570.000
21580575.000 4572342.500 -537.500
21580300.000 4572450.000 -510.000
21580375.000 4572657.500 -588.750
21580175.000 4572560.000 -536.250
21580300.000 4572805.000 -702.500
21580375.000 4573035.000 -850.000
21580150.000 4572907.500 -733.750
21580500.000 4572935.000 -847.500
21580600.000 4573187.500 -921.250
21580300.000 4573180.000 -920.000
21580700.000 4573060.000 -892.500
21580850.000 4573140.000 -850.000
21580825.000 4573315.000 -857.500
21580450.000 4573595.000 -955.000
21580500.000 4573330.000 -950.000
21580500.000 4573767.500 -936.250
21580425.000 4573727.500 -957.500
21580400.000 4573860.000 -960.000
21580300.000 4573525.000 -955.000
21580400.000 4573427.500 -952.500
21580150.000 4573585.000 -950.000
21580200.000 4573450.000 -940.000
21580075.000 4573895.000 -1010.000
21579700.000 4573875.000 -990.000
21580300.000 4574000.000 -1010.000
21580400.000 4574255.000 -1017.500
21580550.000 4574187.500 -831.250
21580750.000 4574490.000 -732.500
21580400.000 4574660.000 -1075.000
21580900.000 4574950.000 -710.000
21581700.000 4575390.000 30.000
21581900.000 4575105.000 195.000
21581400.000 4575475.000 -53.750
21580450.000 4575195.000 -682.500
21581575.000 4575575.000 26.250
21581450.000 4575760.000 22.500
21581550.000 4575805.000 97.500
21581900.000 4575480.000 180.000
21582000.000 4575812.500 206.250
21581900.000 4575292.500 187.500
21582000.000 4575362.500 243.750
21582100.000 4575245.000 307.500
21582200.000 4575127.500 371.250
21582300.000 4575010.000 435.000
21582225.000 4575150.000 378.750
21582300.000 4575370.000 302.500
21582075.000 4575430.000 266.250
21582825.000 4575490.000 451.250
21582300.000 4575550.000 236.250
21583000.000 4575410.000 545.000
21582925.000 4575547.500 418.750
21582475.000 4574955.000 462.500
21583000.000 4575105.000 545.000
21582375.000 4574895.000 448.750
21582450.000 4574780.000 462.500
21582275.000 4574835.000 410.000
21582250.000 4574660.000 385.000
21582225.000 4574485.000 360.000
21582525.000 4574665.000 476.250
21582600.000 4574550.000 490.000
21583050.000 4574470.000 552.500
21583225.000 4574752.500 556.250
21582850.000 4574350.000 525.000
21582650.000 4574392.500 487.500
21583075.000 4574310.000 556.250
21583300.000 4574437.500 556.250
21582975.000 4574250.000 542.500
21583100.000 4574150.000 560.000
21582700.000 4574235.000 485.000
21583150.000 4573930.000 548.750
21583450.000 4574102.500 552.500
21583500.000 4573885.000 545.000
21583900.000 4574135.000 532.500
21583800.000 4574915.000 602.500
21583650.000 4573990.000 517.500
21583900.000 4573897.500 503.750
21584100.000 4574250.000 372.500
21583350.000 4573800.000 545.000
21583200.000 4573710.000 537.500
21583950.000 4573497.500 383.750
21584325.000 4574140.000 222.500
21584000.000 4573335.000 292.500
21584150.000 4573445.000 195.000
21584050.000 4573172.500 201.250
21584000.000 4572765.000 140.000
21584250.000 4572867.500 -55.000
21583900.000 4572062.500 81.250
21584300.000 4572337.500 -27.500
21583975.000 4572107.500 12.500
21584200.000 4572265.000 42.500
21583675.000 4571667.500 21.250
21583925.000 4571625.000 -227.500
21583450.000 4571470.000 241.250
[...]
POINT_DATA 2123
COLOR_SCALARS GocadColor 4
0.25 0.25 0.25 1
0.25 0.25 0.25 1
0.25 0.25 0.25 1
0.25 0.25 0.25 1
0.25 0.25 0.25 1
0.25 0.25 0.25 1
0.25 0.25 0.25 1
0.25 0.25 0.25 1
0.25 0.25 0.25 1
0.25 0.25 0.25 1
0.25 0.25 0.25 1
0.25 0.25 0.25 1
0.25 0.25 0.25 1
0.25 0.25 0.25 1
0.25 0.25 0.25 1
0.25 0.25 0.25 1
0.25 0.25 0.25 1
0.25 0.25 0.25 1
0.25 0.25 0.25 1
0.25 0.25 0.25 1
0.25 0.25 0.25 1
0.25 0.25 0.25 1
0.25 0.25 0.25 1
0.25 0.25 0.25 1
0.25 0.25 0.25 1
0.25 0.25 0.25 1
0.25 0.25 0.25 1
0.25 0.25 0.25 1
0.25 0.25 0.25 1
0.25 0.25 0.25 1
0.25 0.25 0.25 1
0.25 0.25 0.25 1
0.25 0.25 0.25 1
0.25 0.25 0.25 1
0.25 0.25 0.25 1
0.25 0.25 0.25 1
0.25 0.25 0.25 1
0.25 0.25 0.25 1
0.25 0.25 0.25 1
0.25 0.25 0.25 1
0.25 0.25 0.25 1
0.25 0.25 0.25 1
0.25 0.25 0.25 1
0.25 0.25 0.25 1
0.25 0.25 0.25 1
0.25 0.25 0.25 1
0.25 0.25 0.25 1
0.25 0.25 0.25 1
0.25 0.25 0.25 1
0.25 0.25 0.25 1
0.25 0.25 0.25 1
0.25 0.25 0.25 1
0.25 0.25 0.25 1
0.25 0.25 0.25 1
0.25 0.25 0.25 1
0.25 0.25 0.25 1
0.25 0.25 0.25 1
0.25 0.25 0.25 1
0.25 0.25 0.25 1
0.25 0.25 0.25 1
0.25 0.25 0.25 1
0.25 0.25 0.25 1
0.25 0.25 0.25 1
0.25 0.25 0.25 1
0.25 0.25 0.25 1
0.25 0.25 0.25 1
0.25 0.25 0.25 1
0.25 0.25 0.25 1
0.25 0.25 0.25 1
0.25 0.25 0.25 1
0.25 0.25 0.25 1
0.25 0.25 0.25 1
0.25 0.25 0.25 1
0.25 0.25 0.25 1
0.25 0.25 0.25 1
0.25 0.25 0.25 1
0.25 0.25 0.25 1
0.25 0.25 0.25 1
0.25 0.25 0.25 1
0.25 0.25 0.25 1
0.25 0.25 0.25 1
0.25 0.25 0.25 1
0.25 0.25 0.25 1
0.25 0.25 0.25 1
0.25 0.25 0.25 1
0.25 0.25 0.25 1
0.25 0.25 0.25 1
0.25 0.25 0.25 1
0.25 0.25 0.25 1
0.25 0.25 0.25 1
0.25 0.25 0.25 1
0.25 0.25 0.25 1
0.25 0.25 0.25 1
0.25 0.25 0.25 1
0.25 0.25 0.25 1
0.25 0.25 0.25 1
0.25 0.25 0.25 1
0.25 0.25 0.25 1
0.25 0.25 0.25 1
0.25 0.25 0.25 1
0.25 0.25 0.25 1
0.25 0.25 0.25 1
0.25 0.25 0.25 1
0.25 0.25 0.25 1
0.25 0.25 0.25 1
0.25 0.25 0.25 1
0.25 0.25 0.25 1
0.25 0.25 0.25 1
0.25 0.25 0.25 1
0.25 0.25 0.25 1
0.25 0.25 0.25 1
0.25 0.25 0.25 1
0.25 0.25 0.25 1
0.25 0.25 0.25 1
0.25 0.25 0.25 1
0.25 0.25 0.25 1
0.25 0.25 0.25 1
0.25 0.25 0.25 1
0.25 0.25 0.25 1
0.25 0.25 0.25 1
0.25 0.25 0.25 1
0.25 0.25 0.25 1
0.25 0.25 0.25 1
0.25 0.25 0.25 1
0.25 0.25 0.25 1
0.25 0.25 0.25 1
0.25 0.25 0.25 1
0.25 0.25 0.25 1
0.25 0.25 0.25 1
0.25 0.25 0.25 1
0.25 0.25 0.25 1
0.25 0.25 0.25 1
0.25 0.25 0.25 1
0.25 0.25 0.25 1
0.25 0.25 0.25 1
0.25 0.25 0.25 1
0.25 0.25 0.25 1
0.25 0.25 0.25 1
0.25 0.25 0.25 1
0.25 0.25 0.25 1
0.25 0.25 0.25 1
0.25 0.25 0.25 1
0.25 0.25 0.25 1
0.25 0.25 0.25 1
0.25 0.25 0.25 1
0.25 0.25 0.25 1
0.25 0.25 0.25 1
0.25 0.25 0.25 1
0.25 0.25 0.25 1
0.25 0.25 0.25 1
0.25 0.25 0.25 1
0.25 0.25 0.25 1
0.25 0.25 0.25 1
0.25 0.25 0.25 1
0.25 0.25 0.25 1
0.25 0.25 0.25 1
0.25 0.25 0.25 1
0.25 0.25 0.25 1
0.25 0.25 0.25 1
0.25 0.25 0.25 1
0.25 0.25 0.25 1
0.25 0.25 0.25 1
0.25 0.25 0.25 1
0.25 0.25 0.25 1
0.25 0.25 0.25 1
0.25 0.25 0.25 1
0.25 0.25 0.25 1
0.25 0.25 0.25 1
0.25 0.25 0.25 1
0.25 0.25 0.25 1
0.25 0.25 0.25 1
0.25 0.25 0.25 1
0.25 0.25 0.25 1
0.25 0.25 0.25 1
0.25 0.25 0.25 1
0.25 0.25 0.25 1
0.25 0.25 0.25 1
0.25 0.25 0.25 1
0.25 0.25 0.25 1
0.25 0.25 0.25 1
0.25 0.25 0.25 1
0.25 0.25 0.25 1
0.25 0.25 0.25 1
0.25 0.25 0.25 1
0.25 0.25 0.25 1
0.25 0.25 0.25 1
0.25 0.25 0.25 1
0.25 0.25 0.25 1
0.25 0.25 0.25 1
0.25 0.25 0.25 1
0.25 0.25 0.25 1
0.25 0.25 0.25 1
0.25 0.25 0.25 1
0.25 0.25 0.25 1
0.25 0.25 0.25 1
0.25 0.25 0.25 1
0.25 0.25 0.25 1
0.25 0.25 0.25 1
0.25 0.25 0.25 1
0.25 0.25 0.25 1
0.25 0.25 0.25 1
0.25 0.25 0.25 1
0.25 0.25 0.25 1
0.25 0.25 0.25 1
0.25 0.25 0.25 1
0.25 0.25 0.25 1
0.25 0.25 0.25 1
0.25 0.25 0.25 1
0.25 0.25 0.25 1
0.25 0.25 0.25 1
0.25 0.25 0.25 1
0.25 0.25 0.25 1
0.25 0.25 0.25 1
0.25 0.25 0.25 1
0.25 0.25 0.25 1
0.25 0.25 0.25 1
0.25 0.25 0.25 1
0.25 0.25 0.25 1
0.25 0.25 0.25 1
0.25 0.25 0.25 1
0.25 0.25 0.25 1
0.25 0.25 0.25 1
0.25 0.25 0.25 1
0.25 0.25 0.25 1
0.25 0.25 0.25 1
0.25 0.25 0.25 1
0.25 0.25 0.25 1
0.25 0.25 0.25 1
0.25 0.25 0.25 1
0.25 0.25 0.25 1
0.25 0.25 0.25 1
0.25 0.25 0.25 1
0.25 0.25 0.25 1
0.25 0.25 0.25 1
0.25 0.25 0.25 1
0.25 0.25 0.25 1
0.25 0.25 0.25 1
0.25 0.25 0.25 1
0.25 0.25 0.25 1
0.25 0.25 0.25 1
0.25 0.25 0.25 1
0.25 0.25 0.25 1
0.25 0.25 0.25 1
0.25 0.25 0.25 1
0.25 0.25 0.25 1
0.25 0.25 0.25 1
0.25 0.25 0.25 1
0.25 0.25 0.25 1
0.25 0.25 0.25 1
0.25 0.25 0.25 1
0.25 0.25 0.25 1
0.25 0.25 0.25 1
0.25 0.25 0.25 1
0.25 0.25 0.25 1
0.25 0.25 0.25 1
0.25 0.25 0.25 1
0.25 0.25 0.25 1
0.25 0.25 0.25 1
0.25 0.25 0.25 1
0.25 0.25 0.25 1
0.25 0.25 0.25 1
0.25 0.25 0.25 1
0.25 0.25 0.25 1
0.25 0.25 0.25 1
0.25 0.25 0.25 1
0.25 0.25 0.25 1
0.25 0.25 0.25 1
0.25 0.25 0.25 1
0.25 0.25 0.25 1
0.25 0.25 0.25 1
0.25 0.25 0.25 1
0.25 0.25 0.25 1
0.25 0.25 0.25 1
0.25 0.25 0.25 1
0.25 0.25 0.25 1
0.25 0.25 0.25 1
0.25 0.25 0.25 1
0.25 0.25 0.25 1
0.25 0.25 0.25 1
0.25 0.25 0.25 1
0.25 0.25 0.25 1
0.25 0.25 0.25 1
0.25 0.25 0.25 1
0.25 0.25 0.25 1
0.25 0.25 0.25 1
0.25 0.25 0.25 1
0.25 0.25 0.25 1
0.25 0.25 0.25 1
0.25 0.25 0.25 1
0.25 0.25 0.25 1
0.25 0.25 0.25 1
0.25 0.25 0.25 1
0.25 0.25 0.25 1
0.25 0.25 0.25 1
0.25 0.25 0.25 1
0.25 0.25 0.25 1
0.25 0.25 0.25 1
0.25 0.25 0.25 1
0.25 0.25 0.25 1
0.25 0.25 0.25 1
0.25 0.25 0.25 1
0.25 0.25 0.25 1
0.25 0.25 0.25 1
0.25 0.25 0.25 1
0.25 0.25 0.25 1
0.25 0.25 0.25 1
0.25 0.25 0.25 1
0.25 0.25 0.25 1
0.25 0.25 0.25 1
0.25 0.25 0.25 1
0.25 0.25 0.25 1
0.25 0.25 0.25 1
0.25 0.25 0.25 1
0.25 0.25 0.25 1
0.25 0.25 0.25 1
0.25 0.25 0.25 1
0.25 0.25 0.25 1
0.25 0.25 0.25 1
0.25 0.25 0.25 1
0.25 0.25 0.25 1
0.25 0.25 0.25 1
0.25 0.25 0.25 1
0.25 0.25 0.25 1
0.25 0.25 0.25 1
0.25 0.25 0.25 1
0.25 0.25 0.25 1
0.25 0.25 0.25 1
0.25 0.25 0.25 1
0.25 0.25 0.25 1
0.25 0.25 0.25 1
0.25 0.25 0.25 1
0.25 0.25 0.25 1
0.25 0.25 0.25 1
0.25 0.25 0.25 1
0.25 0.25 0.25 1
0.25 0.25 0.25 1
0.25 0.25 0.25 1
0.25 0.25 0.25 1
0.25 0.25 0.25 1
0.25 0.25 0.25 1
0.25 0.25 0.25 1
0.25 0.25 0.25 1
0.25 0.25 0.25 1
0.25 0.25 0.25 1
0.25 0.25 0.25 1
0.25 0.25 0.25 1
0.25 0.25 0.25 1
0.25 0.25 0.25 1
0.25 0.25 0.25 1
0.25 0.25 0.25 1
0.25 0.25 0.25 1
0.25 0.25 0.25 1
0.25 0.25 0.25 1
0.25 0.25 0.25 1
0.25 0.25 0.25 1
0.25 0.25 0.25 1
0.25 0.25 0.25 1
0.25 0.25 0.25 1
0.25 0.25 0.25 1
0.25 0.25 0.25 1
0.25 0.25 0.25 1
0.25 0.25 0.25 1
0.25 0.25 0.25 1
0.25 0.25 0.25 1
0.25 0.25 0.25 1
0.25 0.25 0.25 1
0.25 0.25 0.25 1
0.25 0.25 0.25 1
0.25 0.25 0.25 1
0.25 0.25 0.25 1
0.25 0.25 0.25 1
0.25 0.25 0.25 1
0.25 0.25 0.25 1
0.25 0.25 0.25 1
0.25 0.25 0.25 1
0.25 0.25 0.25 1
0.25 0.25 0.25 1
0.25 0.25 0.25 1
0.25 0.25 0.25 1
0.25 0.25 0.25 1
0.25 0.25 0.25 1
0.25 0.25 0.25 1
0.25 0.25 0.25 1
0.25 0.25 0.25 1
0.25 0.25 0.25 1
0.25 0.25 0.25 1
0.25 0.25 0.25 1
0.25 0.25 0.25 1
0.25 0.25 0.25 1
0.25 0.25 0.25 1
0.25 0.25 0.25 1
0.25 0.25 0.25 1
0.25 0.25 0.25 1
0.25 0.25 0.25 1
0.25 0.25 0.25 1
0.25 0.25 0.25 1
0.25 0.25 0.25 1
0.25 0.25 0.25 1
0.25 0.25 0.25 1
0.25 0.25 0.25 1
0.25 0.25 0.25 1
0.25 0.25 0.25 1
0.25 0.25 0.25 1
0.25 0.25 0.25 1
0.25 0.25 0.25 1
0.25 0.25 0.25 1
0.25 0.25 0.25 1
0.25 0.25 0.25 1
0.25 0.25 0.25 1
0.25 0.25 0.25 1
0.25 0.25 0.25 1
0.25 0.25 0.25 1
0.25 0.25 0.25 1
0.25 0.25 0.25 1
0.25 0.25 0.25 1
0.25 0.25 0.25 1
0.25 0.25 0.25 1
0.25 0.25 0.25 1
0.25 0.25 0.25 1
0.25 0.25 0.25 1
0.25 0.25 0.25 1
0.25 0.25 0.25 1
0.25 0.25 0.25 1
0.25 0.25 0.25 1
0.25 0.25 0.25 1
0.25 0.25 0.25 1
0.25 0.25 0.25 1
0.25 0.25 0.25 1
0.25 0.25 0.25 1
0.25 0.25 0.25 1
0.25 0.25 0.25 1
0.25 0.25 0.25 1
0.25 0.25 0.25 1
0.25 0.25 0.25 1
0.25 0.25 0.25 1
0.25 0.25 0.25 1
0.25 0.25 0.25 1
0.25 0.25 0.25 1
0.25 0.25 0.25 1
0.25 0.25 0.25 1
0.25 0.25 0.25 1
0.25 0.25 0.25 1
0.25 0.25 0.25 1
0.25 0.25 0.25 1
0.25 0.25 0.25 1
0.25 0.25 0.25 1
0.25 0.25 0.25 1
0.25 0.25 0.25 1
0.25 0.25 0.25 1
0.25 0.25 0.25 1
0.25 0.25 0.25 1
0.25 0.25 0.25 1
0.25 0.25 0.25 1
0.25 0.25 0.25 1
0.25 0.25 0.25 1
0.25 0.25 0.25 1
0.25 0.25 0.25 1
0.25 0.25 0.25 1
0.25 0.25 0.25 1
0.25 0.25 0.25 1
0.25 0.25 0.25 1
0.25 0.25 0.25 1
0.25 0.25 0.25 1
0.25 0.25 0.25 1
0.25 0.25 0.25 1
0.25 0.25 0.25 1
0.25 0.25 0.25 1
0.25 0.25 0.25 1
0.25 0.25 0.25 1
0.25 0.25 0.25 1
0.25 0.25 0.25 1
0.25 0.25 0.25 1
0.25 0.25 0.25 1
0.25 0.25 0.25 1
0.25 0.25 0.25 1
0.25 0.25 0.25 1
0.25 0.25 0.25 1
0.25 0.25 0.25 1
0.25 0.25 0.25 1
0.25 0.25 0.25 1
0.25 0.25 0.25 1
0.25 0.25 0.25 1
0.25 0.25 0.25 1
0.25 0.25 0.25 1
0.25 0.25 0.25 1
0.25 0.25 0.25 1
0.25 0.25 0.25 1
0.25 0.25 0.25 1
0.25 0.25 0.25 1
0.25 0.25 0.25 1
0.25 0.25 0.25 1
0.25 0.25 0.25 1
0.25 0.25 0.25 1
0.25 0.25 0.25 1
0.25 0.25 0.25 1
0.25 0.25 0.25 1
0.25 0.25 0.25 1
0.25 0.25 0.25 1
0.25 0.25 0.25 1
0.25 0.25 0.25 1
0.25 0.25 0.25 1
0.25 0.25 0.25 1
0.25 0.25 0.25 1
0.25 0.25 0.25 1
0.25 0.25 0.25 1
0.25 0.25 0.25 1
0.25 0.25 0.25 1
0.25 0.25 0.25 1
0.25 0.25 0.25 1
0.25 0.25 0.25 1
0.25 0.25 0.25 1
0.25 0.25 0.25 1
0.25 0.25 0.25 1
0.25 0.25 0.25 1
0.25 0.25 0.25 1
0.25 0.25 0.25 1
0.25 0.25 0.25 1
0.25 0.25 0.25 1
0.25 0.25 0.25 1
0.25 0.25 0.25 1
0.25 0.25 0.25 1
0.25 0.25 0.25 1
0.25 0.25 0.25 1
0.25 0.25 0.25 1
0.25 0.25 0.25 1
0.25 0.25 0.25 1
0.25 0.25 0.25 1
0.25 0.25 0.25 1
0.25 0.25 0.25 1
0.25 0.25 0.25 1
0.25 0.25 0.25 1
0.25 0.25 0.25 1
0.25 0.25 0.25 1
0.25 0.25 0.25 1
0.25 0.25 0.25 1
0.25 0.25 0.25 1
0.25 0.25 0.25 1
0.25 0.25 0.25 1
0.25 0.25 0.25 1
0.25 0.25 0.25 1
0.25 0.25 0.25 1
0.25 0.25 0.25 1
0.25 0.25 0.25 1
0.25 0.25 0.25 1
0.25 0.25 0.25 1
0.25 0.25 0.25 1
0.25 0.25 0.25 1
0.25 0.25 0.25 1
0.25 0.25 0.25 1
0.25 0.25 0.25 1
0.25 0.25 0.25 1
0.25 0.25 0.25 1
0.25 0.25 0.25 1
0.25 0.25 0.25 1
0.25 0.25 0.25 1
0.25 0.25 0.25 1
0.25 0.25 0.25 1
0.25 0.25 0.25 1
0.25 0.25 0.25 1
0.25 0.25 0.25 1
0.25 0.25 0.25 1
0.25 0.25 0.25 1
0.25 0.25 0.25 1
0.25 0.25 0.25 1
0.25 0.25 0.25 1
0.25 0.25 0.25 1
0.25 0.25 0.25 1
0.25 0.25 0.25 1
0.25 0.25 0.25 1
0.25 0.25 0.25 1
0.25 0.25 0.25 1
0.25 0.25 0.25 1
0.25 0.25 0.25 1
0.25 0.25 0.25 1
0.25 0.25 0.25 1
0.25 0.25 0.25 1
0.25 0.25 0.25 1
0.25 0.25 0.25 1
0.25 0.25 0.25 1
0.25 0.25 0.25 1
0.25 0.25 0.25 1
0.25 0.25 0.25 1
0.25 0.25 0.25 1
0.25 0.25 0.25 1
0.25 0.25 0.25 1
0.25 0.25 0.25 1
0.25 0.25 0.25 1
0.25 0.25 0.25 1
0.25 0.25 0.25 1
0.25 0.25 0.25 1
0.25 0.25 0.25 1
0.25 0.25 0.25 1
0.25 0.25 0.25 1
0.25 0.25 0.25 1
0.25 0.25 0.25 1
0.25 0.25 0.25 1
0.25 0.25 0.25 1
0.25 0.25 0.25 1
0.25 0.25 0.25 1
0.25 0.25 0.25 1
0.25 0.25 0.25 1
0.25 0.25 0.25 1
0.25 0.25 0.25 1
0.25 0.25 0.25 1
0.25 0.25 0.25 1
0.25 0.25 0.25 1
0.25 0.25 0.25 1
0.25 0.25 0.25 1
0.25 0.25 0.25 1
0.25 0.25 0.25 1
0.25 0.25 0.25 1
0.25 0.25 0.25 1
0.25 0.25 0.25 1
0.25 0.25 0.25 1
0.25 0.25 0.25 1
0.25 0.25 0.25 1
0.25 0.25 0.25 1
0.25 0.25 0.25 1
0.25 0.25 0.25 1
0.25 0.25 0.25 1
0.25 0.25 0.25 1
0.25 0.25 0.25 1
0.25 0.25 0.25 1
0.25 0.25 0.25 1
0.25 0.25 0.25 1
0.25 0.25 0.25 1
0.25 0.25 0.25 1
0.25 0.25 0.25 1
0.25 0.25 0.25 1
0.25 0.25 0.25 1
0.25 0.25 0.25 1
0.25 0.25 0.25 1
0.25 0.25 0.25 1
0.25 0.25 0.25 1
0.25 0.25 0.25 1
0.25 0.25 0.25 1
0.25 0.25 0.25 1
0.25 0.25 0.25 1
0.25 0.25 0.25 1
0.25 0.25 0.25 1
0.25 0.25 0.25 1
0.25 0.25 0.25 1
0.25 0.25 0.25 1
0.25 0.25 0.25 1
0.25 0.25 0.25 1
0.25 0.25 0.25 1
0.25 0.25 0.25 1
0.25 0.25 0.25 1
0.25 0.25 0.25 1
0.25 0.25 0.25 1
0.25 0.25 0.25 1
0.25 0.25 0.25 1
0.25 0.25 0.25 1
0.25 0.25 0.25 1
0.25 0.25 0.25 1
0.25 0.25 0.25 1
0.25 0.25 0.25 1
0.25 0.25 0.25 1
0.25 0.25 0.25 1
0.25 0.25 0.25 1
0.25 0.25 0.25 1
0.25 0.25 0.25 1
0.25 0.25 0.25 1
0.25 0.25 0.25 1
0.25 0.25 0.25 1
0.25 0.25 0.25 1
0.25 0.25 0.25 1
0.25 0.25 0.25 1
0.25 0.25 0.25 1
0.25 0.25 0.25 1
0.25 0.25 0.25 1
0.25 0.25 0.25 1
0.25 0.25 0.25 1
0.25 0.25 0.25 1
0.25 0.25 0.25 1
0.25 0.25 0.25 1
0.25 0.25 0.25 1
0.25 0.25 0.25 1
0.25 0.25 0.25 1
0.25 0.25 0.25 1
0.25 0.25 0.25 1
0.25 0.25 0.25 1
0.25 0.25 0.25 1
0.25 0.25 0.25 1
0.25 0.25 0.25 1
0.25 0.25 0.25 1
0.25 0.25 0.25 1
0.25 0.25 0.25 1
0.25 0.25 0.25 1
0.25 0.25 0.25 1
0.25 0.25 0.25 1
0.25 0.25 0.25 1
0.25 0.25 0.25 1
0.25 0.25 0.25 1
0.25 0.25 0.25 1
0.25 0.25 0.25 1
0.25 0.25 0.25 1
0.25 0.25 0.25 1
0.25 0.25 0.25 1
0.25 0.25 0.25 1
0.25 0.25 0.25 1
0.25 0.25 0.25 1
0.25 0.25 0.25 1
0.25 0.25 0.25 1
0.25 0.25 0.25 1
0.25 0.25 0.25 1
0.25 0.25 0.25 1
0.25 0.25 0.25 1
0.25 0.25 0.25 1
0.25 0.25 0.25 1
0.25 0.25 0.25 1
0.25 0.25 0.25 1
0.25 0.25 0.25 1
0.25 0.25 0.25 1
0.25 0.25 0.25 1
0.25 0.25 0.25 1
0.25 0.25 0.25 1
0.25 0.25 0.25 1
0.25 0.25 0.25 1
0.25 0.25 0.25 1
0.25 0.25 0.25 1
0.25 0.25 0.25 1
0.25 0.25 0.25 1
0.25 0.25 0.25 1
0.25 0.25 0.25 1
0.25 0.25 0.25 1
0.25 0.25 0.25 1
0.25 0.25 0.25 1
0.25 0.25 0.25 1
0.25 0.25 0.25 1
0.25 0.25 0.25 1
0.25 0.25 0.25 1
0.25 0.25 0.25 1
0.25 0.25 0.25 1
0.25 0.25 0.25 1
0.25 0.25 0.25 1
0.25 0.25 0.25 1
0.25 0.25 0.25 1
0.25 0.25 0.25 1
0.25 0.25 0.25 1
0.25 0.25 0.25 1
0.25 0.25 0.25 1
0.25 0.25 0.25 1
0.25 0.25 0.25 1
0.25 0.25 0.25 1
0.25 0.25 0.25 1
0.25 0.25 0.25 1
0.25 0.25 0.25 1
0.25 0.25 0.25 1
0.25 0.25 0.25 1
0.25 0.25 0.25 1
0.25 0.25 0.25 1
0.25 0.25 0.25 1
0.25 0.25 0.25 1
0.25 0.25 0.25 1
0.25 0.25 0.25 1
0.25 0.25 0.25 1
0.25 0.25 0.25 1
0.25 0.25 0.25 1
0.25 0.25 0.25 1
0.25 0.25 0.25 1
0.25 0.25 0.25 1
0.25 0.25 0.25 1
0.25 0.25 0.25 1
0.25 0.25 0.25 1
0.25 0.25 0.25 1
0.25 0.25 0.25 1
0.25 0.25 0.25 1
0.25 0.25 0.25 1
0.25 0.25 0.25 1
0.25 0.25 0.25 1
0.25 0.25 0.25 1
0.25 0.25 0.25 1
0.25 0.25 0.25 1
0.25 0.25 0.25 1
0.25 0.25 0.25 1
0.25 0.25 0.25 1
0.25 0.25 0.25 1
0.25 0.25 0.25 1
0.25 0.25 0.25 1
0.25 0.25 0.25 1
0.25 0.25 0.25 1
0.25 0.25 0.25 1
0.25 0.25 0.25 1
0.25 0.25 0.25 1
0.25 0.25 0.25 1
0.25 0.25 0.25 1
0.25 0.25 0.25 1
0.25 0.25 0.25 1
0.25 0.25 0.25 1
0.25 0.25 0.25 1
0.25 0.25 0.25 1
0.25 0.25 0.25 1
0.25 0.25 0.25 1
0.25 0.25 0.25 1
0.25 0.25 0.25 1
0.25 0.25 0.25 1
0.25 0.25 0.25 1
0.25 0.25 0.25 1
0.25 0.25 0.25 1
0.25 0.25 0.25 1
0.25 0.25 0.25 1
0.25 0.25 0.25 1
0.25 0.25 0.25 1
0.25 0.25 0.25 1
0.25 0.25 0.25 1
0.25 0.25 0.25 1
0.25 0.25 0.25 1
0.25 0.25 0.25 1
0.25 0.25 0.25 1
0.25 0.25 0.25 1
0.25 0.25 0.25 1
0.25 0.25 0.25 1
0.25 0.25 0.25 1
0.25 0.25 0.25 1
0.25 0.25 0.25 1
0.25 0.25 0.25 1
0.25 0.25 0.25 1
0.25 0.25 0.25 1
0.25 0.25 0.25 1
0.25 0.25 0.25 1
0.25 0.25 0.25 1
0.25 0.25 0.25 1
0.25 0.25 0.25 1
0.25 0.25 0.25 1
0.25 0.25 0.25 1
0.25 0.25 0.25 1
0.25 0.25 0.25 1
0.25 0.25 0.25 1
0.25 0.25 0.25 1
0.25 0.25 0.25 1
0.25 0.25 0.25 1
0.25 0.25 0.25 1
0.25 0.25 0.25 1
0.25 0.25 0.25 1
0.25 0.25 0.25 1
0.25 0.25 0.25 1
0.25 0.25 0.25 1
0.25 0.25 0.25 1
0.25 0.25 0.25 1
0.25 0.25 0.25 1
0.25 0.25 0.25 1
0.25 0.25 0.25 1
0.25 0.25 0.25 1
0.25 0.25 0.25 1
0.25 0.25 0.25 1
0.25 0.25 0.25 1
0.25 0.25 0.25 1
0.25 0.25 0.25 1
0.25 0.25 0.25 1
0.25 0.25 0.25 1
0.25 0.25 0.25 1
0.25 0.25 0.25 1
0.25 0.25 0.25 1
0.25 0.25 0.25 1
0.25 0.25 0.25 1
0.25 0.25 0.25 1
0.25 0.25 0.25 1
0.25 0.25 0.25 1
0.25 0.25 0.25 1
0.25 0.25 0.25 1
0.25 0.25 0.25 1
0.25 0.25 0.25 1
0.25 0.25 0.25 1
0.25 0.25 0.25 1
0.25 0.25 0.25 1
0.25 0.25 0.25 1
0.25 0.25 0.25 1
0.25 0.25 0.25 1
0.25 0.25 0.25 1
0.25 0.25 0.25 1
0.25 0.25 0.25 1
0.25 0.25 0.25 1
0.25 0.25 0.25 1
0.25 0.25 0.25 1
0.25 0.25 0.25 1
0.25 0.25 0.25 1
0.25 0.25 0.25 1
0.25 0.25 0.25 1
0.25 0.25 0.25 1
0.25 0.25 0.25 1
0.25 0.25 0.25 1
0.25 0.25 0.25 1
0.25 0.25 0.25 1
0.25 0.25 0.25 1
0.25 0.25 0.25 1
0.25 0.25 0.25 1
0.25 0.25 0.25 1
0.25 0.25 0.25 1
0.25 0.25 0.25 1
0.25 0.25 0.25 1
0.25 0.25 0.25 1
0.25 0.25 0.25 1
0.25 0.25 0.25 1
0.25 0.25 0.25 1
0.25 0.25 0.25 1
0.25 0.25 0.25 1
0.25 0.25 0.25 1
0.25 0.25 0.25 1
0.25 0.25 0.25 1
0.25 0.25 0.25 1
0.25 0.25 0.25 1
0.25 0.25 0.25 1
0.25 0.25 0.25 1
0.25 0.25 0.25 1
0.25 0.25 0.25 1
0.25 0.25 0.25 1
0.25 0.25 0.25 1
0.25 0.25 0.25 1
0.25 0.25 0.25 1
0.25 0.25 0.25 1
0.25 0.25 0.25 1
0.25 0.25 0.25 1
0.25 0.25 0.25 1
0.25 0.25 0.25 1
0.25 0.25 0.25 1
0.25 0.25 0.25 1
0.25 0.25 0.25 1
0.25 0.25 0.25 1
0.25 0.25 0.25 1
0.25 0.25 0.25 1
0.25 0.25 0.25 1
0.25 0.25 0.25 1
0.25 0.25 0.25 1
0.25 0.25 0.25 1
0.25 0.25 0.25 1
0.25 0.25 0.25 1
0.25 0.25 0.25 1
0.25 0.25 0.25 1
0.25 0.25 0.25 1
0.25 0.25 0.25 1
0.25 0.25 0.25 1
0.25 0.25 0.25 1
0.25 0.25 0.25 1
0.25 0.25 0.25 1
0.25 0.25 0.25 1
0.25 0.25 0.25 1
0.25 0.25 0.25 1
0.25 0.25 0.25 1
0.25 0.25 0.25 1
0.25 0.25 0.25 1
0.25 0.25 0.25 1
0.25 0.25 0.25 1
0.25 0.25 0.25 1
0.25 0.25 0.25 1
0.25 0.25 0.25 1
0.25 0.25 0.25 1
0.25 0.25 0.25 1
0.25 0.25 0.25 1
0.25 0.25 0.25 1
0.25 0.25 0.25 1
0.25 0.25 0.25 1
0.25 0.25 0.25 1
0.25 0.25 0.25 1
0.25 0.25 0.25 1
0.25 0.25 0.25 1
0.25 0.25 0.25 1
0.25 0.25 0.25 1
0.25 0.25 0.25 1
0.25 0.25 0.25 1
0.25 0.25 0.25 1
0.25 0.25 0.25 1
0.25 0.25 0.25 1
0.25 0.25 0.25 1
0.25 0.25 0.25 1
0.25 0.25 0.25 1
0.25 0.25 0.25 1
0.25 0.25 0.25 1
0.25 0.25 0.25 1
0.25 0.25 0.25 1
0.25 0.25 0.25 1
0.25 0.25 0.25 1
0.25 0.25 0.25 1
0.25 0.25 0.25 1
0.25 0.25 0.25 1
0.25 0.25 0.25 1
0.25 0.25 0.25 1
0.25 0.25 0.25 1
0.25 0.25 0.25 1
0.25 0.25 0.25 1
0.25 0.25 0.25 1
0.25 0.25 0.25 1
0.25 0.25 0.25 1
0.25 0.25 0.25 1
0.25 0.25 0.25 1
0.25 0.25 0.25 1
0.25 0.25 0.25 1
0.25 0.25 0.25 1
0.25 0.25 0.25 1
0.25 0.25 0.25 1
0.25 0.25 0.25 1
0.25 0.25 0.25 1
0.25 0.25 0.25 1
0.25 0.25 0.25 1
0.25 0.25 0.25 1
0.25 0.25 0.25 1
0.25 0.25 0.25 1
0.25 0.25 0.25 1
0.25 0.25 0.25 1
0.25 0.25 0.25 1
0.25 0.25 0.25 1
0.25 0.25 0.25 1
0.25 0.25 0.25 1
0.25 0.25 0.25 1
0.25 0.25 0.25 1
0.25 0.25 0.25 1
0.25 0.25 0.25 1
0.25 0.25 0.25 1
0.25 0.25 0.25 1
0.25 0.25 0.25 1
0.25 0.25 0.25 1
0.25 0.25 0.25 1
0.25 0.25 0.25 1
0.25 0.25 0.25 1
0.25 0.25 0.25 1
0.25 0.25 0.25 1
0.25 0.25 0.25 1
0.25 0.25 0.25 1
0.25 0.25 0.25 1
0.25 0.25 0.25 1
0.25 0.25 0.25 1
0.25 0.25 0.25 1
0.25 0.25 0.25 1
0.25 0.25 0.25 1
0.25 0.25 0.25 1
0.25 0.25 0.25 1
0.25 0.25 0.25 1
0.25 0.25 0.25 1
0.25 0.25 0.25 1
0.25 0.25 0.25 1
0.25 0.25 0.25 1
0.25 0.25 0.25 1
0.25 0.25 0.25 1
0.25 0.25 0.25 1
0.25 0.25 0.25 1
0.25 0.25 0.25 1
0.25 0.25 0.25 1
0.25 0.25 0.25 1
0.25 0.25 0.25 1
0.25 0.25 0.25 1
0.25 0.25 0.25 1
0.25 0.25 0.25 1
0.25 0.25 0.25 1
0.25 0.25 0.25 1
0.25 0.25 0.25 1
0.25 0.25 0.25 1
0.25 0.25 0.25 1
0.25 0.25 0.25 1
0.25 0.25 0.25 1
0.25 0.25 0.25 1
0.25 0.25 0.25 1
0.25 0.25 0.25 1
0.25 0.25 0.25 1
0.25 0.25 0.25 1
0.25 0.25 0.25 1
0.25 0.25 0.25 1
0.25 0.25 0.25 1
0.25 0.25 0.25 1
0.25 0.25 0.25 1
0.25 0.25 0.25 1
0.25 0.25 0.25 1
0.25 0.25 0.25 1
0.25 0.25 0.25 1
0.25 0.25 0.25 1
0.25 0.25 0.25 1
0.25 0.25 0.25 1
0.25 0.25 0.25 1
0.25 0.25 0.25 1
0.25 0.25 0.25 1
0.25 0.25 0.25 1
0.25 0.25 0.25 1
0.25 0.25 0.25 1
0.25 0.25 0.25 1
0.25 0.25 0.25 1
0.25 0.25 0.25 1
0.25 0.25 0.25 1
0.25 0.25 0.25 1
0.25 0.25 0.25 1
0.25 0.25 0.25 1
0.25 0.25 0.25 1
0.25 0.25 0.25 1
0.25 0.25 0.25 1
0.25 0.25 0.25 1
0.25 0.25 0.25 1
0.25 0.25 0.25 1
0.25 0.25 0.25 1
0.25 0.25 0.25 1
0.25 0.25 0.25 1
0.25 0.25 0.25 1
0.25 0.25 0.25 1
0.25 0.25 0.25 1
0.25 0.25 0.25 1
0.25 0.25 0.25 1
0.25 0.25 0.25 1
0.25 0.25 0.25 1
0.25 0.25 0.25 1
0.25 0.25 0.25 1
0.25 0.25 0.25 1
0.25 0.25 0.25 1
0.25 0.25 0.25 1
0.25 0.25 0.25 1
0.25 0.25 0.25 1
0.25 0.25 0.25 1
0.25 0.25 0.25 1
0.25 0.25 0.25 1
0.25 0.25 0.25 1
0.25 0.25 0.25 1
0.25 0.25 0.25 1
0.25 0.25 0.25 1
0.25 0.25 0.25 1
0.25 0.25 0.25 1
0.25 0.25 0.25 1
0.25 0.25 0.25 1
0.25 0.25 0.25 1
0.25 0.25 0.25 1
0.25 0.25 0.25 1
0.25 0.25 0.25 1
0.25 0.25 0.25 1
0.25 0.25 0.25 1
0.25 0.25 0.25 1
0.25 0.25 0.25 1
0.25 0.25 0.25 1
0.25 0.25 0.25 1
0.25 0.25 0.25 1
0.25 0.25 0.25 1
0.25 0.25 0.25 1
0.25 0.25 0.25 1
0.25 0.25 0.25 1
0.25 0.25 0.25 1
0.25 0.25 0.25 1
0.25 0.25 0.25 1
0.25 0.25 0.25 1
0.25 0.25 0.25 1
0.25 0.25 0.25 1
0.25 0.25 0.25 1
0.25 0.25 0.25 1
0.25 0.25 0.25 1
0.25 0.25 0.25 1
0.25 0.25 0.25 1
0.25 0.25 0.25 1
0.25 0.25 0.25 1
0.25 0.25 0.25 1
0.25 0.25 0.25 1
0.25 0.25 0.25 1
0.25 0.25 0.25 1
0.25 0.25 0.25 1
0.25 0.25 0.25 1
0.25 0.25 0.25 1
0.25 0.25 0.25 1
0.25 0.25 0.25 1
0.25 0.25 0.25 1
0.25 0.25 0.25 1
0.25 0.25 0.25 1
0.25 0.25 0.25 1
0.25 0.25 0.25 1
0.25 0.25 0.25 1
0.25 0.25 0.25 1
0.25 0.25 0.25 1
0.25 0.25 0.25 1
0.25 0.25 0.25 1
0.25 0.25 0.25 1
0.25 0.25 0.25 1
0.25 0.25 0.25 1
0.25 0.25 0.25 1
0.25 0.25 0.25 1
0.25 0.25 0.25 1
0.25 0.25 0.25 1
0.25 0.25 0.25 1
0.25 0.25 0.25 1
0.25 0.25 0.25 1
0.25 0.25 0.25 1
0.25 0.25 0.25 1
0.25 0.25 0.25 1