# vtk DataFile Version 3.0
Gocad TSurf to VTK
ASCII
DATASET POLYDATA
POINTS 210 float
21559700.000 4570120.000 -1460.000
21559300.000 4570110.000 -1460.000
21559675.000 4570187.500 -1473.750
21559625.000 4570245.000 -1473.750
21560050.000 4570265.000 -1487.500
21559400.000 4569610.000 -1435.000
21558900.000 4569715.000 -1453.750
21559775.000 4569745.000 -1441.250
21560100.000 4570130.000 -1460.000
21559775.000 4569527.500 -1418.750
21560150.000 4569735.000 -1432.500
21559400.000 4569320.000 -1405.000
21558975.000 4569340.000 -1435.000
21558975.000 4569122.500 -1412.500
21558500.000 4569320.000 -1447.500
21558550.000 4569070.000 -1435.000
21558450.000 4569490.000 -1435.000
21558075.000 4569010.000 -1435.000
21558825.000 4569970.000 -1435.000
21559200.000 4570450.000 -1435.000
21559550.000 4570500.000 -1455.000
21559900.000 4570550.000 -1475.000
21559950.000 4570380.000 -1487.500
21560250.000 4570600.000 -1495.000
21560275.000 4570515.000 -1501.250
21560425.000 4570342.500 -1501.250
21560600.000 4570650.000 -1515.000
21560500.000 4570140.000 -1460.000
21560800.000 4570420.000 -1515.000
21560150.000 4569880.000 -1447.500
21560525.000 4570015.000 -1453.750
21560900.000 4570150.000 -1460.000
21560525.000 4569942.500 -1446.250
21561325.000 4570372.500 -1491.250
21561250.000 4570575.000 -1532.500
21561350.000 4570357.500 -1505.000
21561750.000 4570595.000 -1522.500
21561375.000 4570342.500 -1508.750
21561800.000 4570565.000 -1550.000
21561850.000 4570535.000 -1557.500
21562250.000 4570772.500 -1595.000
21562175.000 4570817.500 -1553.750
21562325.000 4570727.500 -1606.250
21562700.000 4570980.000 -1640.000
21562600.000 4571040.000 -1585.000
21562800.000 4570920.000 -1655.000
21562150.000 4570885.000 -1567.500
21562100.000 4570942.500 -1567.500
21561700.000 4570730.000 -1550.000
21561600.000 4570845.000 -1550.000
21561100.000 4570747.500 -1532.500
21558100.000 4568925.000 -1441.250
21557700.000 4568530.000 -1435.000
21558125.000 4568800.000 -1435.000
21558125.000 4568727.500 -1427.500
21558550.000 4568925.000 -1420.000
21558200.000 4568547.500 -1446.250
21558600.000 4568805.000 -1432.500
21557800.000 4568290.000 -1460.000
21557350.000 4568025.000 -1382.500
21558000.000 4568120.000 -1445.000
21557500.000 4567805.000 -1381.250
21558350.000 4568420.000 -1435.000
21558425.000 4568247.500 -1386.250
21558750.000 4568605.000 -1392.500
21558100.000 4567890.000 -1380.000
21557650.000 4567677.500 -1370.000
21557725.000 4567505.000 -1321.250
21557200.000 4567320.000 -1302.500
21557300.000 4567235.000 -1295.000
21557425.000 4567845.000 -1401.250
21557050.000 4567400.000 -1342.500
21557000.000 4567520.000 -1330.000
21557250.000 4568067.500 -1390.000
21556800.000 4567605.000 -1345.000
21557150.000 4568102.500 -1386.250
21557075.000 4568135.000 -1368.750
21556600.000 4567675.000 -1337.500
21556350.000 4567142.500 -1300.000
21556450.000 4567740.000 -1302.500
21556050.000 4567247.500 -1288.750
21555825.000 4567345.000 -1236.250
21555900.000 4566680.000 -1255.000
21555500.000 4566820.000 -1240.000
21556300.000 4566510.000 -1225.000
21555925.000 4566552.500 -1255.000
21556650.000 4567015.000 -1277.500
21556675.000 4566955.000 -1283.750
21556600.000 4566350.000 -1145.000
21556325.000 4566387.500 -1191.250
21556900.000 4566835.000 -1223.750
21556950.000 4566792.500 -1220.000
21556975.000 4566735.000 -1203.750
21557350.000 4567120.000 -1262.500
21556550.000 4566267.500 -1131.250
21556225.000 4566425.000 -1232.500
21556150.000 4566340.000 -1240.000
21555950.000 4566425.000 -1255.000
21556350.000 4566265.000 -1157.500
21556075.000 4566255.000 -1247.500
21556500.000 4566185.000 -1117.500
21556375.000 4566142.500 -1123.750
21556450.000 4566102.500 -1103.750
21556000.000 4566170.000 -1255.000
21555975.000 4566297.500 -1255.000
21556400.000 4566020.000 -1090.000
21555975.000 4565837.500 -1113.750
21555675.000 4565950.000 -1237.500
21555600.000 4566320.000 -1310.000
21555550.000 4565655.000 -1137.500
21555350.000 4565730.000 -1220.000
21555375.000 4566062.500 -1278.750
21555125.000 4565472.500 -1161.250
21555025.000 4565510.000 -1202.500
21555150.000 4565805.000 -1247.500
21554700.000 4565290.000 -1185.000
21554925.000 4565547.500 -1216.250
21554825.000 4565582.500 -1205.000
21554950.000 4565875.000 -1225.000
21555075.000 4566167.500 -1245.000
21554600.000 4565732.500 -1265.000
21554400.000 4565490.000 -1265.000
21554800.000 4565975.000 -1265.000
21554550.000 4566065.000 -1205.000
21555000.000 4566217.500 -1265.000
21554625.000 4566352.500 -1175.000
21555200.000 4566460.000 -1265.000
21554700.000 4566640.000 -1145.000
21555575.000 4566445.000 -1292.500
21555275.000 4566550.000 -1258.750
21555675.000 4566410.000 -1296.250
21555750.000 4566500.000 -1282.500
21555825.000 4566590.000 -1268.750
21555550.000 4566570.000 -1275.000
21555525.000 4566695.000 -1257.500
21555350.000 4566640.000 -1252.500
21555425.000 4566730.000 -1246.250
21555200.000 4566705.000 -1217.500
21555200.000 4566827.500 -1193.750
21555200.000 4566950.000 -1170.000
21555075.000 4566872.500 -1163.750
21554950.000 4566795.000 -1157.500
21555200.000 4566582.500 -1241.250
21554825.000 4566717.500 -1151.250
21554550.000 4566405.000 -1188.750
21554500.000 4566442.500 -1186.250
21554400.000 4566170.000 -1232.500
21554250.000 4565935.000 -1276.250
21554300.000 4566245.000 -1227.500
21554475.000 4565777.500 -1235.000
21554100.000 4565700.000 -1320.000
21554225.000 4565387.500 -1241.250
21554250.000 4565337.500 -1223.750
21554000.000 4565545.000 -1282.500
21553975.000 4565612.500 -1290.000
21554050.000 4565285.000 -1217.500
21553900.000 4565390.000 -1245.000
21553850.000 4565525.000 -1260.000
21553875.000 4565182.500 -1193.750
21554100.000 4565185.000 -1182.500
21553800.000 4565235.000 -1207.500
21553725.000 4565437.500 -1230.000
21553700.000 4565080.000 -1170.000
21553600.000 4565350.000 -1200.000
21553950.000 4565032.500 -1141.250
21553800.000 4564880.000 -1100.000
21553475.000 4564735.000 -1162.500
21554025.000 4564982.500 -1121.250
21554250.000 4565085.000 -1142.500
21554475.000 4565187.500 -1163.750
21553475.000 4564717.500 -1162.500
21553400.000 4564885.000 -1215.000
21553150.000 4564590.000 -1225.000
21553325.000 4565087.500 -1237.500
21553050.000 4564825.000 -1275.000
21553250.000 4565290.000 -1185.000
21553000.000 4564960.000 -1240.000
21553500.000 4565620.000 -1130.000
21553675.000 4565475.000 -1227.500
21553600.000 4565677.500 -1175.000
21553750.000 4565600.000 -1255.000
21553825.000 4565725.000 -1282.500
21553700.000 4565735.000 -1220.000
21553900.000 4565850.000 -1310.000
21553800.000 4565792.500 -1265.000
21554100.000 4566047.500 -1268.750
21554025.000 4566122.500 -1246.250
21554250.000 4566295.000 -1212.500
21554475.000 4566467.500 -1178.750
21553800.000 4565950.000 -1280.000
21553725.000 4565867.500 -1242.500
21553650.000 4565785.000 -1205.000
21553575.000 4565702.500 -1167.500
21552750.000 4564630.000 -1295.000
21552775.000 4564562.500 -1312.500
21553100.000 4564690.000 -1260.000
21552500.000 4564300.000 -1350.000
21552800.000 4564495.000 -1305.000
21552825.000 4564445.000 -1287.500
21552825.000 4564392.500 -1287.500
21553150.000 4564555.000 -1225.000
21552500.000 4564230.000 -1350.000
21552825.000 4564362.500 -1287.500
21553150.000 4564535.000 -1225.000
21552500.000 4564190.000 -1350.000
21553475.000 4564707.500 -1162.500
21558700.000 4568720.000 -1425.000
21559075.000 4568962.500 -1398.750
21559050.000 4569020.000 -1415.000
21559000.000 4569062.500 -1418.750

POLYGONS 350 1400
3 38 36 41
3 112 113 110
3 145 146 148
3 97 85 95
3 173 162 171
3 145 188 127
3 3 1 20
3 152 155 151
3 64 63 62
3 117 115 121
3 15 13 55
3 187 185 186
3 85 131 132
3 140 137 141
3 30 29 27
3 87 84 86
3 175 173 176
3 42 43 45
3 85 97 131
3 71 90 87
3 69 68 66
3 61 58 60
3 166 165 170
3 137 142 141
3 95 85 84
3 46 48 47
3 129 142 135
3 4 24 25
3 32 30 31
3 80 83 81
3 33 31 28
3 134 83 82
3 69 66 67
3 113 116 114
3 33 28 34
3 36 33 34
3 6 1 5
3 91 88 90
3 206 62 57
3 202 204 201
3 48 34 49
3 182 190 184
3 0 2 4
3 78 82 80
3 12 13 15
3 194 195 197
3 138 139 83
3 8 25 27
3 176 173 174
3 160 163 161
3 120 149 123
3 158 160 156
3 32 29 30
3 73 74 75
3 116 115 117
3 196 194 197
3 203 202 199
3 116 118 114
3 15 55 53
3 186 183 189
3 75 74 77
3 90 68 69
3 145 148 188
3 125 144 127
3 27 25 28
3 157 180 181
3 63 65 60
3 93 69 67
3 169 121 115
3 164 162 158
3 0 1 2
3 116 117 118
3 0 5 1
3 74 86 78
3 133 129 135
3 20 1 19
3 196 197 198
3 52 54 56
3 17 14 51
3 102 105 101
3 144 145 127
3 111 126 108
3 152 151 121
3 199 200 203
3 148 147 185
3 184 189 183
3 86 84 78
3 22 3 21
3 208 209 11
3 133 128 129
3 60 65 66
3 138 137 140
3 149 121 150
3 64 62 206
3 7 5 0
3 34 28 50
3 36 34 48
3 119 122 124
3 13 11 209
3 49 34 50
3 86 72 71
3 29 7 8
3 174 171 195
3 153 157 154
3 118 120 122
3 24 22 23
3 75 77 76
3 182 191 190
3 72 59 70
3 110 114 111
3 152 159 155
3 38 41 40
3 156 161 157
3 104 108 130
3 111 119 126
3 89 95 84
3 156 160 161
3 2 1 3
3 119 124 126
3 128 133 131
3 200 172 170
3 158 156 155
3 170 165 205
3 171 166 172
3 73 75 52
3 90 88 87
3 180 179 182
3 97 104 130
3 131 133 132
3 158 162 160
3 10 9 7
3 30 27 31
3 193 174 194
3 18 19 1
3 42 40 43
3 203 200 205
3 98 89 94
3 76 77 79
3 185 183 186
3 164 165 162
3 177 163 175
3 53 55 54
3 106 107 103
3 2 3 22
3 56 60 58
3 99 103 104
3 97 130 131
3 73 72 74
3 179 192 191
3 91 90 69
3 59 73 52
3 104 103 108
3 119 118 122
3 125 146 144
3 198 172 200
3 148 185 187
3 32 10 29
3 40 44 43
3 66 61 60
3 142 137 135
3 155 153 151
3 0 4 8
3 196 193 194
3 110 111 107
3 35 33 36
3 207 64 206
3 102 101 100
3 68 90 71
3 40 41 44
3 178 163 177
3 188 148 187
3 199 198 200
3 138 140 139
3 163 162 173
3 124 125 127
3 66 65 67
3 92 91 93
3 62 60 56
3 154 183 150
3 151 153 150
3 101 98 100
3 154 181 183
3 134 135 136
3 107 111 108
3 80 82 83
3 120 121 149
3 57 62 56
3 120 123 122
3 77 80 79
3 9 11 5
3 159 158 155
3 68 61 66
3 79 80 81
3 89 96 95
3 130 128 131
3 41 36 48
3 52 58 59
3 55 13 209
3 122 125 124
3 85 132 82
3 61 70 58
3 209 206 57
3 185 150 183
3 112 110 109
3 21 3 20
3 56 58 52
3 61 68 70
3 50 28 26
3 27 29 8
3 27 28 31
3 72 86 74
3 57 55 209
3 91 69 93
3 181 182 184
3 71 72 70
3 147 150 185
3 199 201 196
3 109 107 106
3 129 126 142
3 179 191 182
3 130 108 128
3 114 119 111
3 166 162 165
3 9 5 7
3 132 134 82
3 54 55 57
3 56 54 57
3 176 174 193
3 181 184 183
3 168 152 169
3 70 59 58
3 180 178 179
3 46 47 44
3 197 195 198
3 172 166 170
3 4 22 24
3 39 38 40
3 146 147 148
3 89 98 96
3 16 18 6
3 207 206 208
3 196 198 199
3 184 190 189
3 8 7 0
3 8 4 25
3 142 126 143
3 208 206 209
3 41 48 46
3 135 137 136
3 161 180 157
3 141 142 143
3 118 117 120
3 99 104 96
3 160 162 163
3 181 180 182
3 52 51 53
3 124 127 126
3 12 5 11
3 178 177 179
3 202 201 199
3 153 156 157
3 100 98 94
3 179 177 192
3 14 12 15
3 122 123 125
3 149 150 147
3 167 164 159
3 78 84 82
3 74 78 77
3 167 165 164
3 98 101 99
3 200 170 205
3 25 24 26
3 167 159 168
3 125 123 146
3 16 14 17
3 6 5 12
3 107 108 103
3 25 26 28
3 41 46 44
3 77 78 80
3 123 149 147
3 23 22 21
3 52 53 54
3 195 172 198
3 168 159 152
3 113 115 116
3 134 133 135
3 51 15 53
3 123 147 146
3 113 114 110
3 6 18 1
3 52 17 51
3 134 136 83
3 6 12 14
3 96 97 95
3 114 118 119
3 207 208 11
3 128 126 129
3 75 76 52
3 109 110 107
3 98 99 96
3 175 163 173
3 63 60 62
3 14 15 51
3 136 138 83
3 104 97 96
3 171 162 166
3 173 171 174
3 12 11 13
3 174 195 194
3 92 88 91
3 81 83 139
3 195 171 172
3 133 134 132
3 101 103 99
3 169 152 121
3 2 22 4
3 143 126 127
3 101 105 103
3 128 108 126
3 37 35 38
3 161 178 180
3 39 40 42
3 24 23 26
3 137 138 136
3 47 48 49
3 16 6 14
3 153 154 150
3 106 103 105
3 35 31 33
3 89 84 88
3 10 7 29
3 87 88 84
3 151 150 121
3 161 163 178
3 112 115 113
3 157 181 154
3 159 164 158
3 87 86 71
3 70 68 71
3 144 146 145
3 37 31 35
3 59 72 73
3 85 82 84
3 117 121 120
3 35 36 38
3 94 89 88
3 155 156 153
3 37 38 39

POINT_DATA 210
COLOR_SCALARS GocadColor 4
1 0.498039 0.313726 1
1 0.498039 0.313726 1
1 0.498039 0.313726 1
1 0.498039 0.313726 1
1 0.498039 0.313726 1
1 0.498039 0.313726 1
1 0.498039 0.313726 1
1 0.498039 0.313726 1
1 0.498039 0.313726 1
1 0.498039 0.313726 1
1 0.498039 0.313726 1
1 0.498039 0.313726 1
1 0.498039 0.313726 1
1 0.498039 0.313726 1
1 0.498039 0.313726 1
1 0.498039 0.313726 1
1 0.498039 0.313726 1
1 0.498039 0.313726 1
1 0.498039 0.313726 1
1 0.498039 0.313726 1
1 0.498039 0.313726 1
1 0.498039 0.313726 1
1 0.498039 0.313726 1
1 0.498039 0.313726 1
1 0.498039 0.313726 1
1 0.498039 0.313726 1
1 0.498039 0.313726 1
1 0.498039 0.313726 1
1 0.498039 0.313726 1
1 0.498039 0.313726 1
1 0.498039 0.313726 1
1 0.498039 0.313726 1
1 0.498039 0.313726 1
1 0.498039 0.313726 1
1 0.498039 0.313726 1
1 0.498039 0.313726 1
1 0.498039 0.313726 1
1 0.498039 0.313726 1
1 0.498039 0.313726 1
1 0.498039 0.313726 1
1 0.498039 0.313726 1
1 0.498039 0.313726 1
1 0.498039 0.313726 1
1 0.498039 0.313726 1
1 0.498039 0.313726 1
1 0.498039 0.313726 1
1 0.498039 0.313726 1
1 0.498039 0.313726 1
1 0.498039 0.313726 1
1 0.498039 0.313726 1
1 0.498039 0.313726 1
1 0.498039 0.313726 1
1 0.498039 0.313726 1
1 0.498039 0.313726 1
1 0.498039 0.313726 1
1 0.498039 0.313726 1
1 0.498039 0.313726 1
1 0.498039 0.313726 1
1 0.498039 0.313726 1
1 0.498039 0.313726 1
1 0.498039 0.313726 1
1 0.498039 0.313726 1
1 0.498039 0.313726 1
1 0.498039 0.313726 1
1 0.498039 0.313726 1
1 0.498039 0.313726 1
1 0.498039 0.313726 1
1 0.498039 0.313726 1
1 0.498039 0.313726 1
1 0.498039 0.313726 1
1 0.498039 0.313726 1
1 0.498039 0.313726 1
1 0.498039 0.313726 1
1 0.498039 0.313726 1
1 0.498039 0.313726 1
1 0.498039 0.313726 1
1 0.498039 0.313726 1
1 0.498039 0.313726 1
1 0.498039 0.313726 1
1 0.498039 0.313726 1
1 0.498039 0.313726 1
1 0.498039 0.313726 1
1 0.498039 0.313726 1
1 0.498039 0.313726 1
1 0.498039 0.313726 1
1 0.498039 0.313726 1
1 0.498039 0.313726 1
1 0.498039 0.313726 1
1 0.498039 0.313726 1
1 0.498039 0.313726 1
1 0.498039 0.313726 1
1 0.498039 0.313726 1
1 0.498039 0.313726 1
1 0.498039 0.313726 1
1 0.498039 0.313726 1
1 0.498039 0.313726 1
1 0.498039 0.313726 1
1 0.498039 0.313726 1
1 0.498039 0.313726 1
1 0.498039 0.313726 1
1 0.498039 0.313726 1
1 0.498039 0.313726 1
1 0.498039 0.313726 1
1 0.498039 0.313726 1
1 0.498039 0.313726 1
1 0.498039 0.313726 1
1 0.498039 0.313726 1
1 0.498039 0.313726 1
1 0.498039 0.313726 1
1 0.498039 0.313726 1
1 0.498039 0.313726 1
1 0.498039 0.313726 1
1 0.498039 0.313726 1
1 0.498039 0.313726 1
1 0.498039 0.313726 1
1 0.498039 0.313726 1
1 0.498039 0.313726 1
1 0.498039 0.313726 1
1 0.498039 0.313726 1
1 0.498039 0.313726 1
1 0.498039 0.313726 1
1 0.498039 0.313726 1
1 0.498039 0.313726 1
1 0.498039 0.313726 1
1 0.498039 0.313726 1
1 0.498039 0.313726 1
1 0.498039 0.313726 1
1 0.498039 0.313726 1
1 0.498039 0.313726 1
1 0.498039 0.313726 1
1 0.498039 0.313726 1
1 0.498039 0.313726 1
1 0.498039 0.313726 1
1 0.498039 0.313726 1
1 0.498039 0.313726 1
1 0.498039 0.313726 1
1 0.498039 0.313726 1
1 0.498039 0.313726 1
1 0.498039 0.313726 1
1 0.498039 0.313726 1
1 0.498039 0.313726 1
1 0.498039 0.313726 1
1 0.498039 0.313726 1
1 0.498039 0.313726 1
1 0.498039 0.313726 1
1 0.498039 0.313726 1
1 0.498039 0.313726 1
1 0.498039 0.313726 1
1 0.498039 0.313726 1
1 0.498039 0.313726 1
1 0.498039 0.313726 1
1 0.498039 0.313726 1
1 0.498039 0.313726 1
1 0.498039 0.313726 1
1 0.498039 0.313726 1
1 0.498039 0.313726 1
1 0.498039 0.313726 1
1 0.498039 0.313726 1
1 0.498039 0.313726 1
1 0.498039 0.313726 1
1 0.498039 0.313726 1
1 0.498039 0.313726 1
1 0.498039 0.313726 1
1 0.498039 0.313726 1
1 0.498039 0.313726 1
1 0.498039 0.313726 1
1 0.498039 0.313726 1
1 0.498039 0.313726 1
1 0.498039 0.313726 1
1 0.498039 0.313726 1
1 0.498039 0.313726 1
1 0.498039 0.313726 1
1 0.498039 0.313726 1
1 0.498039 0.313726 1
1 0.498039 0.313726 1
1 0.498039 0.313726 1
1 0.498039 0.313726 1
1 0.498039 0.313726 1
1 0.498039 0.313726 1
1 0.498039 0.313726 1
1 0.498039 0.313726 1
1 0.498039 0.313726 1
1 0.498039 0.313726 1
1 0.498039 0.313726 1
1 0.498039 0.313726 1
1 0.498039 0.313726 1
1 0.498039 0.313726 1
1 0.498039 0.313726 1
1 0.498039 0.313726 1
1 0.498039 0.313726 1
1 0.498039 0.313726 1
1 0.498039 0.313726 1
1 0.498039 0.313726 1
1 0.498039 0.313726 1
1 0.498039 0.313726 1
1 0.498039 0.313726 1
1 0.498039 0.313726 1
1 0.498039 0.313726 1
1 0.498039 0.313726 1
1 0.498039 0.313726 1
1 0.498039 0.313726 1
1 0.498039 0.313726 1
1 0.498039 0.313726 1
1 0.498039 0.313726 1
1 0.498039 0.313726 1
1 0.498039 0.313726 1
1 0.498039 0.313726 1
1 0.498039 0.313726 1
1 0.498039 0.313726 1
1 0.498039 0.313726 1

