# vtk DataFile Version 3.0
Gocad TSurf to VTK
ASCII
DATASET POLYDATA
POINTS 88 float
21607800.000 4567865.000 -920.000
21607550.000 4567560.000 -1017.500
21607575.000 4567935.000 -961.250
21607700.000 4568087.500 -912.500
21607900.000 4567642.500 -927.500
21607525.000 4567185.000 -1073.750
21607900.000 4568005.000 -865.000
21608625.000 4568552.500 -555.000
21607850.000 4568297.500 -830.000
21608075.000 4568577.500 -715.000
21607600.000 4568310.000 -905.000
21607675.000 4568867.500 -791.250
21607525.000 4568657.500 -873.750
21608125.000 4569325.000 -633.750
21607850.000 4569450.000 -682.500
21608400.000 4569190.000 -585.000
21608250.000 4569410.000 -592.500
21608525.000 4569027.500 -557.500
21608650.000 4568865.000 -530.000
21608900.000 4568540.000 -475.000
21608000.000 4567420.000 -935.000
21608500.000 4567550.000 -915.000
21608250.000 4567245.000 -1012.500
21608950.000 4568110.000 -685.000
21609575.000 4569197.500 -262.500
21608750.000 4567615.000 -905.000
21609000.000 4567680.000 -895.000
21608625.000 4567462.500 -953.750
21607700.000 4565800.000 -1560.000
21608750.000 4567092.500 -1047.500
21607650.000 4566052.500 -1452.500
21607600.000 4566305.000 -1345.000
21607550.000 4566557.500 -1237.500
21607500.000 4566810.000 -1130.000
21610375.000 4567680.000 -503.750
21607775.000 4565682.500 -1546.250
21607850.000 4565565.000 -1532.500
21607925.000 4565447.500 -1518.750
21608000.000 4565330.000 -1505.000
21608475.000 4565675.000 -1320.000
21609925.000 4567042.500 -710.000
21610500.000 4567560.000 -490.000
21608950.000 4566020.000 -1135.000
21609425.000 4566365.000 -950.000
21609900.000 4566710.000 -765.000
21610400.000 4567005.000 -782.500
21610850.000 4567642.500 -576.250
21612100.000 4569045.000 -157.500
21610900.000 4567300.000 -800.000
21611400.000 4567595.000 -817.500
21611550.000 4567807.500 -748.750
21611950.000 4568325.000 -573.750
21611900.000 4567890.000 -835.000
21612100.000 4568850.000 -280.000
21612200.000 4569470.000 100.000
21612175.000 4569510.000 127.500
21612125.000 4569590.000 182.500
21612175.000 4569510.000 127.500
21612150.000 4569550.000 155.000
21612100.000 4569630.000 210.000
21611575.000 4569232.500 21.250
21612025.000 4569857.500 237.500
21611950.000 4570080.000 265.000
21612025.000 4569855.000 237.500
21611875.000 4570305.000 292.500
21610400.000 4568822.500 -315.000
21611800.000 4570530.000 320.000
21611750.000 4570690.000 333.750
21610800.000 4569605.000 -85.000
21611700.000 4570850.000 347.500
21611600.000 4571170.000 375.000
21611650.000 4571010.000 361.250
21610925.000 4570512.500 162.500
21610925.000 4570512.500 162.500
21610250.000 4569855.000 -50.000
21609575.000 4569197.500 -262.500
21608250.000 4569420.000 -592.500
21608100.000 4569640.000 -600.000
21608100.000 4569630.000 -600.000
21607950.000 4569850.000 -607.500
21607575.000 4569575.000 -731.250
21607800.000 4570070.000 -615.000
21607550.000 4569145.000 -787.500
21607425.000 4569422.500 -783.750
21607450.000 4569005.000 -842.500
21607375.000 4569352.500 -811.250
21607300.000 4569700.000 -780.000
21607800.000 4570080.000 -615.000

POLYGONS 124 496
3 25 21 23
3 16 76 78
3 22 27 30
3 75 24 19
3 74 73 72
3 46 41 47
3 51 50 46
3 60 41 34
3 80 82 83
3 17 19 18
3 13 9 11
3 36 35 29
3 29 35 28
3 14 82 80
3 52 50 51
3 9 8 11
3 32 33 22
3 74 24 75
3 14 77 13
3 64 60 65
3 0 1 2
3 82 11 84
3 10 8 3
3 38 29 34
3 65 26 68
3 60 34 65
3 70 71 68
3 45 41 46
3 86 83 85
3 63 59 61
3 21 19 23
3 54 55 57
3 71 69 68
3 10 3 2
3 54 53 47
3 45 46 48
3 82 84 85
3 61 60 62
3 29 28 26
3 19 21 20
3 40 44 43
3 79 80 81
3 59 41 60
3 7 19 4
3 77 76 13
3 72 26 23
3 81 80 87
3 0 6 4
3 24 74 23
3 19 20 4
3 86 87 80
3 25 26 27
3 76 77 78
3 26 25 23
3 39 38 34
3 77 14 79
3 79 78 77
3 29 26 34
3 33 20 22
3 52 49 50
3 13 11 14
3 4 5 1
3 16 13 76
3 41 44 40
3 55 47 56
3 7 18 19
3 26 65 34
3 18 9 17
3 42 39 40
3 37 36 29
3 31 32 22
3 62 63 61
3 23 19 24
3 3 8 6
3 11 12 84
3 27 22 21
3 65 66 64
3 3 6 0
3 15 13 16
3 10 12 11
3 27 26 28
3 3 0 2
3 58 55 56
3 74 72 23
3 21 22 20
3 0 4 1
3 14 11 82
3 47 41 59
3 9 15 17
3 34 41 40
3 20 33 5
3 56 47 59
3 50 49 46
3 7 9 18
3 53 51 47
3 62 60 64
3 25 27 21
3 6 8 9
3 40 39 34
3 72 70 26
3 66 65 67
3 27 28 30
3 26 70 68
3 6 9 7
3 38 37 29
3 9 13 15
3 61 59 60
3 83 82 85
3 14 80 79
3 43 42 40
3 67 68 69
3 4 20 5
3 6 7 4
3 86 80 83
3 73 70 72
3 22 30 31
3 54 47 55
3 53 52 51
3 65 68 67
3 57 55 58
3 8 10 11
3 51 46 47
3 49 48 46
3 44 41 45

POINT_DATA 88
COLOR_SCALARS GocadColor 4
0.392157 0.584314 0.929412 1
0.392157 0.584314 0.929412 1
0.392157 0.584314 0.929412 1
0.392157 0.584314 0.929412 1
0.392157 0.584314 0.929412 1
0.392157 0.584314 0.929412 1
0.392157 0.584314 0.929412 1
0.392157 0.584314 0.929412 1
0.392157 0.584314 0.929412 1
0.392157 0.584314 0.929412 1
0.392157 0.584314 0.929412 1
0.392157 0.584314 0.929412 1
0.392157 0.584314 0.929412 1
0.392157 0.584314 0.929412 1
0.392157 0.584314 0.929412 1
0.392157 0.584314 0.929412 1
0.392157 0.584314 0.929412 1
0.392157 0.584314 0.929412 1
0.392157 0.584314 0.929412 1
0.392157 0.584314 0.929412 1
0.392157 0.584314 0.929412 1
0.392157 0.584314 0.929412 1
0.392157 0.584314 0.929412 1
0.392157 0.584314 0.929412 1
0.392157 0.584314 0.929412 1
0.392157 0.584314 0.929412 1
0.392157 0.584314 0.929412 1
0.392157 0.584314 0.929412 1
0.392157 0.584314 0.929412 1
0.392157 0.584314 0.929412 1
0.392157 0.584314 0.929412 1
0.392157 0.584314 0.929412 1
0.392157 0.584314 0.929412 1
0.392157 0.584314 0.929412 1
0.392157 0.584314 0.929412 1
0.392157 0.584314 0.929412 1
0.392157 0.584314 0.929412 1
0.392157 0.584314 0.929412 1
0.392157 0.584314 0.929412 1
0.392157 0.584314 0.929412 1
0.392157 0.584314 0.929412 1
0.392157 0.584314 0.929412 1
0.392157 0.584314 0.929412 1
0.392157 0.584314 0.929412 1
0.392157 0.584314 0.929412 1
0.392157 0.584314 0.929412 1
0.392157 0.584314 0.929412 1
0.392157 0.584314 0.929412 1
0.392157 0.584314 0.929412 1
0.392157 0.584314 0.929412 1
0.392157 0.584314 0.929412 1
0.392157 0.584314 0.929412 1
0.392157 0.584314 0.929412 1
0.392157 0.584314 0.929412 1
0.392157 0.584314 0.929412 1
0.392157 0.584314 0.929412 1
0.392157 0.584314 0.929412 1
0.392157 0.584314 0.929412 1
0.392157 0.584314 0.929412 1
0.392157 0.584314 0.929412 1
0.392157 0.584314 0.929412 1
0.392157 0.584314 0.929412 1
0.392157 0.584314 0.929412 1
0.392157 0.584314 0.929412 1
0.392157 0.584314 0.929412 1
0.392157 0.584314 0.929412 1
0.392157 0.584314 0.929412 1
0.392157 0.584314 0.929412 1
0.392157 0.584314 0.929412 1
0.392157 0.584314 0.929412 1
0.392157 0.584314 0.929412 1
0.392157 0.584314 0.929412 1
0.392157 0.584314 0.929412 1
0.392157 0.584314 0.929412 1
0.392157 0.584314 0.929412 1
0.392157 0.584314 0.929412 1
0.392157 0.584314 0.929412 1
0.392157 0.584314 0.929412 1
0.392157 0.584314 0.929412 1
0.392157 0.584314 0.929412 1
0.392157 0.584314 0.929412 1
0.392157 0.584314 0.929412 1
0.392157 0.584314 0.929412 1
0.392157 0.584314 0.929412 1
0.392157 0.584314 0.929412 1
0.392157 0.584314 0.929412 1
0.392157 0.584314 0.929412 1
0.392157 0.584314 0.929412 1

