# vtk DataFile Version 3.0
Gocad TSurf to VTK
ASCII
DATASET POLYDATA
POINTS 2458 float
21582000.000 4578645.000 -2357.500
21582150.000 4578557.500 -2406.250
21582375.000 4578687.500 -2260.000
21582450.000 4578905.000 -2065.000
21581850.000 4578732.500 -2308.750
21578800.000 4578380.000 -4672.500
21578800.000 4578505.000 -4572.500
21578800.000 4578370.000 -4680.000
21581300.000 4577555.000 -3375.000
21581600.000 4577720.000 -3095.000
21581350.000 4577777.500 -3200.000
21585525.000 4573185.000 -2507.500
21585600.000 4573242.500 -2507.500
21585700.000 4573160.000 -2245.000
21585600.000 4573242.500 -2507.500
21585500.000 4573325.000 -2770.000
21585775.000 4573357.500 -2482.500
21585500.000 4573325.000 -2770.000
21585500.000 4573325.000 -2770.000
21585500.000 4573325.000 -2770.000
21583500.000 4571930.000 -2727.500
21583600.000 4571842.500 -2631.250
21583600.000 4572015.000 -2707.500
21585700.000 4573160.000 -2245.000
21584800.000 4572540.000 -2495.000
21585525.000 4573185.000 -2507.500
21584850.000 4572720.000 -2695.000
21584850.000 4572720.000 -2695.000
21585700.000 4573160.000 -2245.000
21586525.000 4573835.000 -2370.000
21586700.000 4573790.000 -2095.000
21586600.000 4573622.500 -2122.500
21585775.000 4573362.500 -2482.500
21585775.000 4573360.000 -2482.500
21586350.000 4573880.000 -2645.000
21585775.000 4573357.500 -2482.500
21585850.000 4573560.000 -2720.000
21574900.000 4576310.000 -4550.000
21574000.000 4575790.000 -4450.000
21574200.000 4575772.500 -4481.250
21585850.000 4576765.000 -3040.000
21585850.000 4576770.000 -3040.000
21585825.000 4576902.500 -2942.500
21585825.000 4576900.000 -2942.500
21585850.000 4575335.000 -3412.500
21585825.000 4575542.500 -3451.250
21585850.000 4575335.000 -3412.500
21580900.000 4577320.000 -3745.000
21581050.000 4577215.000 -3735.000
21581050.000 4577217.500 -3735.000
21586525.000 4573835.000 -2370.000
21586650.000 4573912.500 -2348.750
21586600.000 4574035.000 -2602.500
21570800.000 4574820.000 -2705.000
21571175.000 4574842.500 -2907.500
21570700.000 4574820.000 -2705.000
21570750.000 4574942.500 -2778.750
21571650.000 4574865.000 -3110.000
21571175.000 4574842.500 -2907.500
21571250.000 4574842.500 -2907.500
21583700.000 4575520.000 -2295.000
21583500.000 4575390.000 -2307.500
21583500.000 4575545.000 -2276.250
21583100.000 4575635.000 -2558.750
21583000.000 4575750.000 -2747.500
21583000.000 4575750.000 -2747.500
21582600.000 4571030.000 -2650.000
21583100.000 4571370.000 -2625.000
21582725.000 4571010.000 -2793.750
21576575.000 4577177.500 -4692.500
21576700.000 4577135.000 -4780.000
21576550.000 4577177.500 -4692.500
21581700.000 4580390.000 -2370.000
21580800.000 4579715.000 -3155.000
21581625.000 4580210.000 -2461.250
21581900.000 4580230.000 -2217.500
21581800.000 4580310.000 -2293.750
21582100.000 4580370.000 -1987.500
21581900.000 4580230.000 -2217.500
21582000.000 4580150.000 -2141.250
21581600.000 4580030.000 -2552.500
21581550.000 4579850.000 -2643.750
21584250.000 4575972.500 -2292.500
21584125.000 4575902.500 -2251.250
21584300.000 4575855.000 -2365.000
21584300.000 4575860.000 -2365.000
21583600.000 4571670.000 -2555.000
21584400.000 4572220.000 -2625.000
21583750.000 4571687.500 -2750.000
21588050.000 4574617.500 -2712.500
21588275.000 4574770.000 -2796.250
21588100.000 4574750.000 -2705.000
21587000.000 4574920.000 -3320.000
21587150.000 4574945.000 -3351.250
21586925.000 4574802.500 -3275.000
21582300.000 4571490.000 -3140.000
21582275.000 4571547.500 -3132.500
21582275.000 4571555.000 -3132.500
21584875.000 4576342.500 -2435.000
21584875.000 4576335.000 -2435.000
21584950.000 4576245.000 -2595.000
21587000.000 4575095.000 -3376.250
21587600.000 4575477.500 -3398.750
21587000.000 4574920.000 -3320.000
21581800.000 4580310.000 -2293.750
21581900.000 4580230.000 -2217.500
21581800.000 4580310.000 -2293.750
21583275.000 4575407.500 -2370.000
21583200.000 4575370.000 -2401.250
21583350.000 4575295.000 -2370.000
21578450.000 4578170.000 -4727.500
21578150.000 4577980.000 -4777.500
21578275.000 4578205.000 -4643.750
21580800.000 4579707.500 -3155.000
21580800.000 4579715.000 -3155.000
21581000.000 4579700.000 -3015.000
21584850.000 4572720.000 -2695.000
21584900.000 4572900.000 -2895.000
21584850.000 4572720.000 -2695.000
21579550.000 4575715.000 -4445.000
21579750.000 4576037.500 -4542.500
21579900.000 4575875.000 -4340.000
21582450.000 4575455.000 -3140.000
21582525.000 4575312.500 -3007.500
21582650.000 4575555.000 -3015.000
21581100.000 4573960.000 -3962.500
21581250.000 4574200.000 -3951.250
21580950.000 4574035.000 -3921.250
21580250.000 4576080.000 -4247.500
21580250.000 4576080.000 -4247.500
21580225.000 4575820.000 -4091.250
21586800.000 4574205.000 -2685.000
21586800.000 4574205.000 -2685.000
21586850.000 4574087.500 -2457.500
21586850.000 4574090.000 -2457.500
21585700.000 4573160.000 -2245.000
21584800.000 4572540.000 -2495.000
21585650.000 4573015.000 -2402.500
21585875.000 4575127.500 -3373.750
21585850.000 4575335.000 -3412.500
21585875.000 4575127.500 -3373.750
21582650.000 4575560.000 -3015.000
21582650.000 4575555.000 -3015.000
21582675.000 4575747.500 -3085.000
21582450.000 4571750.000 -3102.500
21582575.000 4571750.000 -3098.750
21582350.000 4571585.000 -3143.750
21581550.000 4579850.000 -2643.750
21581500.000 4579670.000 -2735.000
21581475.000 4579850.000 -2643.750
21580325.000 4574900.000 -4321.250
21579600.000 4574230.000 -4395.000
21580600.000 4574790.000 -4380.000
21579900.000 4574200.000 -4266.250
21580500.000 4576225.000 -4067.500
21580250.000 4576080.000 -4247.500
21580350.000 4575892.500 -4001.250
21585850.000 4576120.000 -3362.500
21585875.000 4576305.000 -3298.750
21586100.000 4576445.000 -3357.500
21582375.000 4571375.000 -3017.500
21582300.000 4571490.000 -3140.000
21582300.000 4571480.000 -3140.000
21583000.000 4575750.000 -2747.500
21582900.000 4575865.000 -2936.250
21583000.000 4575750.000 -2747.500
21585900.000 4576490.000 -3235.000
21585975.000 4576677.500 -3172.500
21585875.000 4576630.000 -3137.500
21584600.000 4576025.000 -2392.500
21584300.000 4575870.000 -2365.000
21584250.000 4575995.000 -2292.500
21579400.000 4579040.000 -4145.000
21580525.000 4579530.000 -3447.500
21579625.000 4579020.000 -4085.000
21582825.000 4578195.000 -2432.500
21582825.000 4578195.000 -2432.500
21582650.000 4578280.000 -2450.000
21582450.000 4571255.000 -2895.000
21582525.000 4571142.500 -2772.500
21582525.000 4571145.000 -2772.500
21580800.000 4573945.000 -3935.000
21580125.000 4573562.500 -3893.750
21580350.000 4573525.000 -3962.500
21578100.000 4578102.500 -4680.000
21577500.000 4577757.500 -4691.250
21577700.000 4577735.000 -4792.500
21581800.000 4575272.500 -3811.250
21582250.000 4575520.000 -3383.750
21581900.000 4575135.000 -3647.500
21585825.000 4575540.000 -3451.250
21585850.000 4575335.000 -3412.500
21585825.000 4575542.500 -3451.250
21579825.000 4573757.500 -3967.500
21579600.000 4573815.000 -4110.000
21579750.000 4573915.000 -4110.000
21586350.000 4573880.000 -2645.000
21586525.000 4573835.000 -2370.000
21586600.000 4574035.000 -2602.500
21585850.000 4573555.000 -2720.000
21585775.000 4573357.500 -2482.500
21585775.000 4573360.000 -2482.500
21582825.000 4578195.000 -2432.500
21582650.000 4578280.000 -2450.000
21582650.000 4578275.000 -2450.000
21579850.000 4573250.000 -3927.500
21580125.000 4573562.500 -3893.750
21579875.000 4573425.000 -3876.250
21581850.000 4577850.000 -2880.000
21581625.000 4577925.000 -2952.500
21581600.000 4577725.000 -3095.000
21582100.000 4586337.500 -2220.000
21582325.000 4586465.000 -2253.750
21582000.000 4586527.500 -2178.750
21582400.000 4586600.000 -2275.000
21581300.000 4585940.000 -2120.000
21582250.000 4586330.000 -2232.500
21582175.000 4586195.000 -2211.250
21582100.000 4586152.500 -2200.000
21581900.000 4586030.000 -2172.500
21582100.000 4586060.000 -2190.000
21581100.000 4585460.000 -1925.000
21581450.000 4585440.000 -2232.500
21581000.000 4585865.000 -2161.250
21581025.000 4585495.000 -1973.750
21581150.000 4585987.500 -2168.750
21581000.000 4586035.000 -2217.500
21581300.000 4586097.500 -2102.500
21581500.000 4586535.000 -2095.000
21581300.000 4586412.500 -2067.500
21581300.000 4586570.000 -2050.000
21580800.000 4586042.500 -2262.500
21581700.000 4586820.000 -2025.000
21581800.000 4586730.000 -2076.250
21581700.000 4586830.000 -2025.000
21582025.000 4586880.000 -2136.250
21582050.000 4586730.000 -2167.500
21582000.000 4587030.000 -2105.000
21582100.000 4586922.500 -2147.500
21582200.000 4586825.000 -2190.000
21582000.000 4587040.000 -2105.000
21582000.000 4587050.000 -2105.000
21582475.000 4587177.500 -2327.500
21582450.000 4586985.000 -2310.000
21582500.000 4587370.000 -2345.000
21582625.000 4587252.500 -2387.500
21582550.000 4587035.000 -2350.000
21582700.000 4587470.000 -2425.000
21582475.000 4586817.500 -2312.500
21582425.000 4586792.500 -2292.500
21582300.000 4586712.500 -2232.500
21580700.000 4586130.000 -2315.000
21580900.000 4585955.000 -2210.000
21580750.000 4585860.000 -2225.000
21580775.000 4585730.000 -2172.500
21580675.000 4585437.500 -2063.750
21580100.000 4585110.000 -2470.000
21580725.000 4585270.000 -1902.500
21580425.000 4585112.500 -1951.250
21580900.000 4584830.000 -2275.000
21580750.000 4584980.000 -2052.500
21581800.000 4585420.000 -2540.000
21581875.000 4585580.000 -2452.500
21580925.000 4584730.000 -2267.500
21580800.000 4584800.000 -2275.000
21581775.000 4585282.500 -2491.250
21581500.000 4584860.000 -2327.500
21581450.000 4584575.000 -2230.000
21581750.000 4585145.000 -2442.500
21581725.000 4585007.500 -2393.750
21581700.000 4584870.000 -2345.000
21581650.000 4584762.500 -2298.750
21581600.000 4584655.000 -2252.500
21581550.000 4584547.500 -2206.250
21581500.000 4584440.000 -2160.000
21581200.000 4584300.000 -2205.000
21581000.000 4584430.000 -2245.000
21581400.000 4584202.500 -2122.500
21581175.000 4584097.500 -2156.250
21581050.000 4584340.000 -2205.000
21581300.000 4583965.000 -2085.000
21581150.000 4583895.000 -2107.500
21580950.000 4583947.500 -2186.250
[...]
POINT_DATA 2458
COLOR_SCALARS GocadColor 4
0.611765 0.243137 0.807843 1
0.611765 0.243137 0.807843 1
0.611765 0.243137 0.807843 1
0.611765 0.243137 0.807843 1
0.611765 0.243137 0.807843 1
0.611765 0.243137 0.807843 1
0.611765 0.243137 0.807843 1
0.611765 0.243137 0.807843 1
0.611765 0.243137 0.807843 1
0.611765 0.243137 0.807843 1
0.611765 0.243137 0.807843 1
0.611765 0.243137 0.807843 1
0.611765 0.243137 0.807843 1
0.611765 0.243137 0.807843 1
0.611765 0.243137 0.807843 1
0.611765 0.243137 0.807843 1
0.611765 0.243137 0.807843 1
0.611765 0.243137 0.807843 1
0.611765 0.243137 0.807843 1
0.611765 0.243137 0.807843 1
0.611765 0.243137 0.807843 1
0.611765 0.243137 0.807843 1
0.611765 0.243137 0.807843 1
0.611765 0.243137 0.807843 1
0.611765 0.243137 0.807843 1
0.611765 0.243137 0.807843 1
0.611765 0.243137 0.807843 1
0.611765 0.243137 0.807843 1
0.611765 0.243137 0.807843 1
0.611765 0.243137 0.807843 1
0.611765 0.243137 0.807843 1
0.611765 0.243137 0.807843 1
0.611765 0.243137 0.807843 1
0.611765 0.243137 0.807843 1
0.611765 0.243137 0.807843 1
0.611765 0.243137 0.807843 1
0.611765 0.243137 0.807843 1
0.611765 0.243137 0.807843 1
0.611765 0.243137 0.807843 1
0.611765 0.243137 0.807843 1
0.611765 0.243137 0.807843 1
0.611765 0.243137 0.807843 1
0.611765 0.243137 0.807843 1
0.611765 0.243137 0.807843 1
0.611765 0.243137 0.807843 1
0.611765 0.243137 0.807843 1
0.611765 0.243137 0.807843 1
0.611765 0.243137 0.807843 1
0.611765 0.243137 0.807843 1
0.611765 0.243137 0.807843 1
0.611765 0.243137 0.807843 1
0.611765 0.243137 0.807843 1
0.611765 0.243137 0.807843 1
0.611765 0.243137 0.807843 1
0.611765 0.243137 0.807843 1
0.611765 0.243137 0.807843 1
0.611765 0.243137 0.807843 1
0.611765 0.243137 0.807843 1
0.611765 0.243137 0.807843 1
0.611765 0.243137 0.807843 1
0.611765 0.243137 0.807843 1
0.611765 0.243137 0.807843 1
0.611765 0.243137 0.807843 1
0.611765 0.243137 0.807843 1
0.611765 0.243137 0.807843 1
0.611765 0.243137 0.807843 1
0.611765 0.243137 0.807843 1
0.611765 0.243137 0.807843 1
0.611765 0.243137 0.807843 1
0.611765 0.243137 0.807843 1
0.611765 0.243137 0.807843 1
0.611765 0.243137 0.807843 1
0.611765 0.243137 0.807843 1
0.611765 0.243137 0.807843 1
0.611765 0.243137 0.807843 1
0.611765 0.243137 0.807843 1
0.611765 0.243137 0.807843 1
0.611765 0.243137 0.807843 1
0.611765 0.243137 0.807843 1
0.611765 0.243137 0.807843 1
0.611765 0.243137 0.807843 1
0.611765 0.243137 0.807843 1
0.611765 0.243137 0.807843 1
0.611765 0.243137 0.807843 1
0.611765 0.243137 0.807843 1
0.611765 0.243137 0.807843 1
0.611765 0.243137 0.807843 1
0.611765 0.243137 0.807843 1
0.611765 0.243137 0.807843 1
0.611765 0.243137 0.807843 1
0.611765 0.243137 0.807843 1
0.611765 0.243137 0.807843 1
0.611765 0.243137 0.807843 1
0.611765 0.243137 0.807843 1
0.611765 0.243137 0.807843 1
0.611765 0.243137 0.807843 1
0.611765 0.243137 0.807843 1
0.611765 0.243137 0.807843 1
0.611765 0.243137 0.807843 1
0.611765 0.243137 0.807843 1
0.611765 0.243137 0.807843 1
0.611765 0.243137 0.807843 1
0.611765 0.243137 0.807843 1
0.611765 0.243137 0.807843 1
0.611765 0.243137 0.807843 1
0.611765 0.243137 0.807843 1
0.611765 0.243137 0.807843 1
0.611765 0.243137 0.807843 1
0.611765 0.243137 0.807843 1
0.611765 0.243137 0.807843 1
0.611765 0.243137 0.807843 1
0.611765 0.243137 0.807843 1
0.611765 0.243137 0.807843 1
0.611765 0.243137 0.807843 1
0.611765 0.243137 0.807843 1
0.611765 0.243137 0.807843 1
0.611765 0.243137 0.807843 1
0.611765 0.243137 0.807843 1
0.611765 0.243137 0.807843 1
0.611765 0.243137 0.807843 1
0.611765 0.243137 0.807843 1
0.611765 0.243137 0.807843 1
0.611765 0.243137 0.807843 1
0.611765 0.243137 0.807843 1
0.611765 0.243137 0.807843 1
0.611765 0.243137 0.807843 1
0.611765 0.243137 0.807843 1
0.611765 0.243137 0.807843 1
0.611765 0.243137 0.807843 1
0.611765 0.243137 0.807843 1
0.611765 0.243137 0.807843 1
0.611765 0.243137 0.807843 1
0.611765 0.243137 0.807843 1
0.611765 0.243137 0.807843 1
0.611765 0.243137 0.807843 1
0.611765 0.243137 0.807843 1
0.611765 0.243137 0.807843 1
0.611765 0.243137 0.807843 1
0.611765 0.243137 0.807843 1
0.611765 0.243137 0.807843 1
0.611765 0.243137 0.807843 1
0.611765 0.243137 0.807843 1
0.611765 0.243137 0.807843 1
0.611765 0.243137 0.807843 1
0.611765 0.243137 0.807843 1
0.611765 0.243137 0.807843 1
0.611765 0.243137 0.807843 1
0.611765 0.243137 0.807843 1
0.611765 0.243137 0.807843 1
0.611765 0.243137 0.807843 1
0.611765 0.243137 0.807843 1
0.611765 0.243137 0.807843 1
0.611765 0.243137 0.807843 1
0.611765 0.243137 0.807843 1
0.611765 0.243137 0.807843 1
0.611765 0.243137 0.807843 1
0.611765 0.243137 0.807843 1
0.611765 0.243137 0.807843 1
0.611765 0.243137 0.807843 1
0.611765 0.243137 0.807843 1
0.611765 0.243137 0.807843 1
0.611765 0.243137 0.807843 1
0.611765 0.243137 0.807843 1
0.611765 0.243137 0.807843 1
0.611765 0.243137 0.807843 1
0.611765 0.243137 0.807843 1
0.611765 0.243137 0.807843 1
0.611765 0.243137 0.807843 1
0.611765 0.243137 0.807843 1
0.611765 0.243137 0.807843 1
0.611765 0.243137 0.807843 1
0.611765 0.243137 0.807843 1
0.611765 0.243137 0.807843 1
0.611765 0.243137 0.807843 1
0.611765 0.243137 0.807843 1
0.611765 0.243137 0.807843 1
0.611765 0.243137 0.807843 1
0.611765 0.243137 0.807843 1
0.611765 0.243137 0.807843 1
0.611765 0.243137 0.807843 1
0.611765 0.243137 0.807843 1
0.611765 0.243137 0.807843 1
0.611765 0.243137 0.807843 1
0.611765 0.243137 0.807843 1
0.611765 0.243137 0.807843 1
0.611765 0.243137 0.807843 1
0.611765 0.243137 0.807843 1
0.611765 0.243137 0.807843 1
0.611765 0.243137 0.807843 1
0.611765 0.243137 0.807843 1
0.611765 0.243137 0.807843 1
0.611765 0.243137 0.807843 1
0.611765 0.243137 0.807843 1
0.611765 0.243137 0.807843 1
0.611765 0.243137 0.807843 1
0.611765 0.243137 0.807843 1
0.611765 0.243137 0.807843 1
0.611765 0.243137 0.807843 1
0.611765 0.243137 0.807843 1
0.611765 0.243137 0.807843 1
0.611765 0.243137 0.807843 1
0.611765 0.243137 0.807843 1
0.611765 0.243137 0.807843 1
0.611765 0.243137 0.807843 1
0.611765 0.243137 0.807843 1
0.611765 0.243137 0.807843 1
0.611765 0.243137 0.807843 1
0.611765 0.243137 0.807843 1
0.611765 0.243137 0.807843 1
0.611765 0.243137 0.807843 1
0.611765 0.243137 0.807843 1
0.611765 0.243137 0.807843 1
0.611765 0.243137 0.807843 1
0.611765 0.243137 0.807843 1
0.611765 0.243137 0.807843 1
0.611765 0.243137 0.807843 1
0.611765 0.243137 0.807843 1
0.611765 0.243137 0.807843 1
0.611765 0.243137 0.807843 1
0.611765 0.243137 0.807843 1
0.611765 0.243137 0.807843 1
0.611765 0.243137 0.807843 1
0.611765 0.243137 0.807843 1
0.611765 0.243137 0.807843 1
0.611765 0.243137 0.807843 1
0.611765 0.243137 0.807843 1
0.611765 0.243137 0.807843 1
0.611765 0.243137 0.807843 1
0.611765 0.243137 0.807843 1
0.611765 0.243137 0.807843 1
0.611765 0.243137 0.807843 1
0.611765 0.243137 0.807843 1
0.611765 0.243137 0.807843 1
0.611765 0.243137 0.807843 1
0.611765 0.243137 0.807843 1
0.611765 0.243137 0.807843 1
0.611765 0.243137 0.807843 1
0.611765 0.243137 0.807843 1
0.611765 0.243137 0.807843 1
0.611765 0.243137 0.807843 1
0.611765 0.243137 0.807843 1
0.611765 0.243137 0.807843 1
0.611765 0.243137 0.807843 1
0.611765 0.243137 0.807843 1
0.611765 0.243137 0.807843 1
0.611765 0.243137 0.807843 1
0.611765 0.243137 0.807843 1
0.611765 0.243137 0.807843 1
0.611765 0.243137 0.807843 1
0.611765 0.243137 0.807843 1
0.611765 0.243137 0.807843 1
0.611765 0.243137 0.807843 1
0.611765 0.243137 0.807843 1
0.611765 0.243137 0.807843 1
0.611765 0.243137 0.807843 1
0.611765 0.243137 0.807843 1
0.611765 0.243137 0.807843 1
0.611765 0.243137 0.807843 1
0.611765 0.243137 0.807843 1
0.611765 0.243137 0.807843 1
0.611765 0.243137 0.807843 1
0.611765 0.243137 0.807843 1
0.611765 0.243137 0.807843 1
0.611765 0.243137 0.807843 1
0.611765 0.243137 0.807843 1
0.611765 0.243137 0.807843 1
0.611765 0.243137 0.807843 1
0.611765 0.243137 0.807843 1
0.611765 0.243137 0.807843 1
0.611765 0.243137 0.807843 1
0.611765 0.243137 0.807843 1
0.611765 0.243137 0.807843 1
0.611765 0.243137 0.807843 1
0.611765 0.243137 0.807843 1
0.611765 0.243137 0.807843 1
0.611765 0.243137 0.807843 1
0.611765 0.243137 0.807843 1
0.611765 0.243137 0.807843 1
0.611765 0.243137 0.807843 1
0.611765 0.243137 0.807843 1
0.611765 0.243137 0.807843 1
0.611765 0.243137 0.807843 1
0.611765 0.243137 0.807843 1
0.611765 0.243137 0.807843 1
0.611765 0.243137 0.807843 1
0.611765 0.243137 0.807843 1
0.611765 0.243137 0.807843 1
0.611765 0.243137 0.807843 1
0.611765 0.243137 0.807843 1
0.611765 0.243137 0.807843 1
0.611765 0.243137 0.807843 1
0.611765 0.243137 0.807843 1
0.611765 0.243137 0.807843 1
0.611765 0.243137 0.807843 1
0.611765 0.243137 0.807843 1
0.611765 0.243137 0.807843 1
0.611765 0.243137 0.807843 1
0.611765 0.243137 0.807843 1
0.611765 0.243137 0.807843 1
0.611765 0.243137 0.807843 1
0.611765 0.243137 0.807843 1
0.611765 0.243137 0.807843 1
0.611765 0.243137 0.807843 1
0.611765 0.243137 0.807843 1
0.611765 0.243137 0.807843 1
0.611765 0.243137 0.807843 1
0.611765 0.243137 0.807843 1
0.611765 0.243137 0.807843 1
0.611765 0.243137 0.807843 1
0.611765 0.243137 0.807843 1
0.611765 0.243137 0.807843 1
0.611765 0.243137 0.807843 1
0.611765 0.243137 0.807843 1
0.611765 0.243137 0.807843 1
0.611765 0.243137 0.807843 1
0.611765 0.243137 0.807843 1
0.611765 0.243137 0.807843 1
0.611765 0.243137 0.807843 1
0.611765 0.243137 0.807843 1
0.611765 0.243137 0.807843 1
0.611765 0.243137 0.807843 1
0.611765 0.243137 0.807843 1
0.611765 0.243137 0.807843 1
0.611765 0.243137 0.807843 1
0.611765 0.243137 0.807843 1
0.611765 0.243137 0.807843 1
0.611765 0.243137 0.807843 1
0.611765 0.243137 0.807843 1
0.611765 0.243137 0.807843 1
0.611765 0.243137 0.807843 1
0.611765 0.243137 0.807843 1
0.611765 0.243137 0.807843 1
0.611765 0.243137 0.807843 1
0.611765 0.243137 0.807843 1
0.611765 0.243137 0.807843 1
0.611765 0.243137 0.807843 1
0.611765 0.243137 0.807843 1
0.611765 0.243137 0.807843 1
0.611765 0.243137 0.807843 1
0.611765 0.243137 0.807843 1
0.611765 0.243137 0.807843 1
0.611765 0.243137 0.807843 1
0.611765 0.243137 0.807843 1
0.611765 0.243137 0.807843 1
0.611765 0.243137 0.807843 1
0.611765 0.243137 0.807843 1
0.611765 0.243137 0.807843 1
0.611765 0.243137 0.807843 1
0.611765 0.243137 0.807843 1
0.611765 0.243137 0.807843 1
0.611765 0.243137 0.807843 1
0.611765 0.243137 0.807843 1
0.611765 0.243137 0.807843 1
0.611765 0.243137 0.807843 1
0.611765 0.243137 0.807843 1
0.611765 0.243137 0.807843 1
0.611765 0.243137 0.807843 1
0.611765 0.243137 0.807843 1
0.611765 0.243137 0.807843 1
0.611765 0.243137 0.807843 1
0.611765 0.243137 0.807843 1
0.611765 0.243137 0.807843 1
0.611765 0.243137 0.807843 1
0.611765 0.243137 0.807843 1
0.611765 0.243137 0.807843 1
0.611765 0.243137 0.807843 1
0.611765 0.243137 0.807843 1
0.611765 0.243137 0.807843 1
0.611765 0.243137 0.807843 1
0.611765 0.243137 0.807843 1
0.611765 0.243137 0.807843 1
0.611765 0.243137 0.807843 1
0.611765 0.243137 0.807843 1
0.611765 0.243137 0.807843 1
0.611765 0.243137 0.807843 1
0.611765 0.243137 0.807843 1
0.611765 0.243137 0.807843 1
0.611765 0.243137 0.807843 1
0.611765 0.243137 0.807843 1
0.611765 0.243137 0.807843 1
0.611765 0.243137 0.807843 1
0.611765 0.243137 0.807843 1
0.611765 0.243137 0.807843 1
0.611765 0.243137 0.807843 1
0.611765 0.243137 0.807843 1
0.611765 0.243137 0.807843 1
0.611765 0.243137 0.807843 1
0.611765 0.243137 0.807843 1
0.611765 0.243137 0.807843 1
0.611765 0.243137 0.807843 1
0.611765 0.243137 0.807843 1
0.611765 0.243137 0.807843 1
0.611765 0.243137 0.807843 1
0.611765 0.243137 0.807843 1
0.611765 0.243137 0.807843 1
0.611765 0.243137 0.807843 1
0.611765 0.243137 0.807843 1
0.611765 0.243137 0.807843 1
0.611765 0.243137 0.807843 1
0.611765 0.243137 0.807843 1
0.611765 0.243137 0.807843 1
0.611765 0.243137 0.807843 1
0.611765 0.243137 0.807843 1
0.611765 0.243137 0.807843 1
0.611765 0.243137 0.807843 1
0.611765 0.243137 0.807843 1
0.611765 0.243137 0.807843 1
0.611765 0.243137 0.807843 1
0.611765 0.243137 0.807843 1
0.611765 0.243137 0.807843 1
0.611765 0.243137 0.807843 1
0.611765 0.243137 0.807843 1
0.611765 0.243137 0.807843 1
0.611765 0.243137 0.807843 1
0.611765 0.243137 0.807843 1
0.611765 0.243137 0.807843 1
0.611765 0.243137 0.807843 1
0.611765 0.243137 0.807843 1
0.611765 0.243137 0.807843 1
0.611765 0.243137 0.807843 1
0.611765 0.243137 0.807843 1
0.611765 0.243137 0.807843 1
0.611765 0.243137 0.807843 1
0.611765 0.243137 0.807843 1
0.611765 0.243137 0.807843 1
0.611765 0.243137 0.807843 1
0.611765 0.243137 0.807843 1
0.611765 0.243137 0.807843 1
0.611765 0.243137 0.807843 1
0.611765 0.243137 0.807843 1
0.611765 0.243137 0.807843 1
0.611765 0.243137 0.807843 1
0.611765 0.243137 0.807843 1
0.611765 0.243137 0.807843 1
0.611765 0.243137 0.807843 1
0.611765 0.243137 0.807843 1
0.611765 0.243137 0.807843 1
0.611765 0.243137 0.807843 1
0.611765 0.243137 0.807843 1
0.611765 0.243137 0.807843 1
0.611765 0.243137 0.807843 1
0.611765 0.243137 0.807843 1
0.611765 0.243137 0.807843 1
0.611765 0.243137 0.807843 1
0.611765 0.243137 0.807843 1
0.611765 0.243137 0.807843 1
0.611765 0.243137 0.807843 1
0.611765 0.243137 0.807843 1
0.611765 0.243137 0.807843 1
0.611765 0.243137 0.807843 1
0.611765 0.243137 0.807843 1
0.611765 0.243137 0.807843 1
0.611765 0.243137 0.807843 1
0.611765 0.243137 0.807843 1
0.611765 0.243137 0.807843 1
0.611765 0.243137 0.807843 1
0.611765 0.243137 0.807843 1
0.611765 0.243137 0.807843 1
0.611765 0.243137 0.807843 1
0.611765 0.243137 0.807843 1
0.611765 0.243137 0.807843 1
0.611765 0.243137 0.807843 1
0.611765 0.243137 0.807843 1
0.611765 0.243137 0.807843 1
0.611765 0.243137 0.807843 1
0.611765 0.243137 0.807843 1
0.611765 0.243137 0.807843 1
0.611765 0.243137 0.807843 1
0.611765 0.243137 0.807843 1
0.611765 0.243137 0.807843 1
0.611765 0.243137 0.807843 1
0.611765 0.243137 0.807843 1
0.611765 0.243137 0.807843 1
0.611765 0.243137 0.807843 1
0.611765 0.243137 0.807843 1
0.611765 0.243137 0.807843 1
0.611765 0.243137 0.807843 1
0.611765 0.243137 0.807843 1
0.611765 0.243137 0.807843 1
0.611765 0.243137 0.807843 1
0.611765 0.243137 0.807843 1
0.611765 0.243137 0.807843 1
0.611765 0.243137 0.807843 1
0.611765 0.243137 0.807843 1
0.611765 0.243137 0.807843 1
0.611765 0.243137 0.807843 1
0.611765 0.243137 0.807843 1
0.611765 0.243137 0.807843 1
0.611765 0.243137 0.807843 1
0.611765 0.243137 0.807843 1
0.611765 0.243137 0.807843 1
0.611765 0.243137 0.807843 1
0.611765 0.243137 0.807843 1
0.611765 0.243137 0.807843 1
0.611765 0.243137 0.807843 1
0.611765 0.243137 0.807843 1
0.611765 0.243137 0.807843 1
0.611765 0.243137 0.807843 1
0.611765 0.243137 0.807843 1
0.611765 0.243137 0.807843 1
0.611765 0.243137 0.807843 1
0.611765 0.243137 0.807843 1
0.611765 0.243137 0.807843 1
0.611765 0.243137 0.807843 1
0.611765 0.243137 0.807843 1
0.611765 0.243137 0.807843 1
0.611765 0.243137 0.807843 1
0.611765 0.243137 0.807843 1
0.611765 0.243137 0.807843 1
0.611765 0.243137 0.807843 1
0.611765 0.243137 0.807843 1
0.611765 0.243137 0.807843 1
0.611765 0.243137 0.807843 1
0.611765 0.243137 0.807843 1
0.611765 0.243137 0.807843 1
0.611765 0.243137 0.807843 1
0.611765 0.243137 0.807843 1
0.611765 0.243137 0.807843 1
0.611765 0.243137 0.807843 1
0.611765 0.243137 0.807843 1
0.611765 0.243137 0.807843 1
0.611765 0.243137 0.807843 1
0.611765 0.243137 0.807843 1
0.611765 0.243137 0.807843 1
0.611765 0.243137 0.807843 1
0.611765 0.243137 0.807843 1
0.611765 0.243137 0.807843 1
0.611765 0.243137 0.807843 1
0.611765 0.243137 0.807843 1
0.611765 0.243137 0.807843 1
0.611765 0.243137 0.807843 1
0.611765 0.243137 0.807843 1
0.611765 0.243137 0.807843 1
0.611765 0.243137 0.807843 1
0.611765 0.243137 0.807843 1
0.611765 0.243137 0.807843 1
0.611765 0.243137 0.807843 1
0.611765 0.243137 0.807843 1
0.611765 0.243137 0.807843 1
0.611765 0.243137 0.807843 1
0.611765 0.243137 0.807843 1
0.611765 0.243137 0.807843 1
0.611765 0.243137 0.807843 1
0.611765 0.243137 0.807843 1
0.611765 0.243137 0.807843 1
0.611765 0.243137 0.807843 1
0.611765 0.243137 0.807843 1
0.611765 0.243137 0.807843 1
0.611765 0.243137 0.807843 1
0.611765 0.243137 0.807843 1
0.611765 0.243137 0.807843 1
0.611765 0.243137 0.807843 1
0.611765 0.243137 0.807843 1
0.611765 0.243137 0.807843 1
0.611765 0.243137 0.807843 1
0.611765 0.243137 0.807843 1
0.611765 0.243137 0.807843 1
0.611765 0.243137 0.807843 1
0.611765 0.243137 0.807843 1
0.611765 0.243137 0.807843 1
0.611765 0.243137 0.807843 1
0.611765 0.243137 0.807843 1
0.611765 0.243137 0.807843 1
0.611765 0.243137 0.807843 1
0.611765 0.243137 0.807843 1
0.611765 0.243137 0.807843 1
0.611765 0.243137 0.807843 1
0.611765 0.243137 0.807843 1
0.611765 0.243137 0.807843 1
0.611765 0.243137 0.807843 1
0.611765 0.243137 0.807843 1
0.611765 0.243137 0.807843 1
0.611765 0.243137 0.807843 1
0.611765 0.243137 0.807843 1
0.611765 0.243137 0.807843 1
0.611765 0.243137 0.807843 1
0.611765 0.243137 0.807843 1
0.611765 0.243137 0.807843 1
0.611765 0.243137 0.807843 1
0.611765 0.243137 0.807843 1
0.611765 0.243137 0.807843 1
0.611765 0.243137 0.807843 1
0.611765 0.243137 0.807843 1
0.611765 0.243137 0.807843 1
0.611765 0.243137 0.807843 1
0.611765 0.243137 0.807843 1
0.611765 0.243137 0.807843 1
0.611765 0.243137 0.807843 1
0.611765 0.243137 0.807843 1
0.611765 0.243137 0.807843 1
0.611765 0.243137 0.807843 1
0.611765 0.243137 0.807843 1
0.611765 0.243137 0.807843 1
0.611765 0.243137 0.807843 1
0.611765 0.243137 0.807843 1
0.611765 0.243137 0.807843 1
0.611765 0.243137 0.807843 1
0.611765 0.243137 0.807843 1
0.611765 0.243137 0.807843 1
0.611765 0.243137 0.807843 1
0.611765 0.243137 0.807843 1
0.611765 0.243137 0.807843 1
0.611765 0.243137 0.807843 1
0.611765 0.243137 0.807843 1
0.611765 0.243137 0.807843 1
0.611765 0.243137 0.807843 1
0.611765 0.243137 0.807843 1
0.611765 0.243137 0.807843 1
0.611765 0.243137 0.807843 1
0.611765 0.243137 0.807843 1
0.611765 0.243137 0.807843 1
0.611765 0.243137 0.807843 1
0.611765 0.243137 0.807843 1
0.611765 0.243137 0.807843 1
0.611765 0.243137 0.807843 1
0.611765 0.243137 0.807843 1
0.611765 0.243137 0.807843 1
0.611765 0.243137 0.807843 1
0.611765 0.243137 0.807843 1
0.611765 0.243137 0.807843 1
0.611765 0.243137 0.807843 1
0.611765 0.243137 0.807843 1
0.611765 0.243137 0.807843 1
0.611765 0.243137 0.807843 1
0.611765 0.243137 0.807843 1
0.611765 0.243137 0.807843 1
0.611765 0.243137 0.807843 1
0.611765 0.243137 0.807843 1
0.611765 0.243137 0.807843 1
0.611765 0.243137 0.807843 1
0.611765 0.243137 0.807843 1
0.611765 0.243137 0.807843 1
0.611765 0.243137 0.807843 1
0.611765 0.243137 0.807843 1
0.611765 0.243137 0.807843 1
0.611765 0.243137 0.807843 1
0.611765 0.243137 0.807843 1
0.611765 0.243137 0.807843 1
0.611765 0.243137 0.807843 1
0.611765 0.243137 0.807843 1
0.611765 0.243137 0.807843 1
0.611765 0.243137 0.807843 1
0.611765 0.243137 0.807843 1
0.611765 0.243137 0.807843 1
0.611765 0.243137 0.807843 1
0.611765 0.243137 0.807843 1
0.611765 0.243137 0.807843 1
0.611765 0.243137 0.807843 1
0.611765 0.243137 0.807843 1
0.611765 0.243137 0.807843 1
0.611765 0.243137 0.807843 1
0.611765 0.243137 0.807843 1
0.611765 0.243137 0.807843 1
0.611765 0.243137 0.807843 1
0.611765 0.243137 0.807843 1
0.611765 0.243137 0.807843 1
0.611765 0.243137 0.807843 1
0.611765 0.243137 0.807843 1
0.611765 0.243137 0.807843 1
0.611765 0.243137 0.807843 1
0.611765 0.243137 0.807843 1
0.611765 0.243137 0.807843 1
0.611765 0.243137 0.807843 1
0.611765 0.243137 0.807843 1
0.611765 0.243137 0.807843 1
0.611765 0.243137 0.807843 1
0.611765 0.243137 0.807843 1
0.611765 0.243137 0.807843 1
0.611765 0.243137 0.807843 1
0.611765 0.243137 0.807843 1
0.611765 0.243137 0.807843 1
0.611765 0.243137 0.807843 1
0.611765 0.243137 0.807843 1
0.611765 0.243137 0.807843 1
0.611765 0.243137 0.807843 1
0.611765 0.243137 0.807843 1
0.611765 0.243137 0.807843 1
0.611765 0.243137 0.807843 1
0.611765 0.243137 0.807843 1
0.611765 0.243137 0.807843 1
0.611765 0.243137 0.807843 1
0.611765 0.243137 0.807843 1
0.611765 0.243137 0.807843 1
0.611765 0.243137 0.807843 1
0.611765 0.243137 0.807843 1
0.611765 0.243137 0.807843 1
0.611765 0.243137 0.807843 1
0.611765 0.243137 0.807843 1