# vtk DataFile Version 3.0
Gocad TSurf to VTK
ASCII
DATASET POLYDATA
POINTS 185 float
21558875.000 4569787.500 -945.000
21559300.000 4570190.000 -975.000
21558800.000 4570027.500 -903.750
21559200.000 4570510.000 -920.000
21558400.000 4569545.000 -887.500
21559300.000 4569760.000 -950.000
21559700.000 4569857.500 -950.000
21558875.000 4569465.000 -926.250
21558450.000 4569385.000 -915.000
21559400.000 4569300.000 -880.000
21559775.000 4569512.500 -897.500
21558950.000 4569120.000 -873.750
21558450.000 4569170.000 -902.500
21559000.000 4569077.500 -883.750
21558600.000 4568855.000 -887.500
21559025.000 4569012.500 -883.750
21559075.000 4568947.500 -862.500
21558650.000 4568725.000 -887.500
21558750.000 4568595.000 -845.000
21558275.000 4568437.500 -891.250
21558200.000 4568632.500 -891.250
21558425.000 4568242.500 -827.500
21557900.000 4568150.000 -895.000
21558100.000 4567890.000 -810.000
21557800.000 4568410.000 -895.000
21557425.000 4567930.000 -857.500
21557275.000 4568057.500 -827.500
21557500.000 4567735.000 -857.500
21557050.000 4567450.000 -820.000
21557600.000 4567695.000 -826.250
21557300.000 4567240.000 -757.500
21557750.000 4567500.000 -762.500
21557400.000 4567110.000 -715.000
21557000.000 4566785.000 -688.750
21557100.000 4567320.000 -820.000
21557050.000 4566720.000 -667.500
21556700.000 4566330.000 -620.000
21556700.000 4566905.000 -782.500
21556300.000 4566490.000 -745.000
21556675.000 4566970.000 -782.500
21556325.000 4566370.000 -700.000
21556275.000 4566392.500 -720.000
21556625.000 4566250.000 -606.250
21556350.000 4566250.000 -655.000
21556250.000 4566295.000 -695.000
21556550.000 4566170.000 -592.500
21556375.000 4566130.000 -610.000
21556225.000 4566197.500 -670.000
21556475.000 4566090.000 -578.750
21556400.000 4566010.000 -565.000
21556200.000 4566100.000 -645.000
21555975.000 4565822.500 -602.500
21555825.000 4565890.000 -662.500
21555550.000 4565635.000 -640.000
21555900.000 4566220.000 -740.000
21555600.000 4565980.000 -733.750
21556000.000 4566287.500 -741.250
21555900.000 4566335.000 -751.250
21555900.000 4566450.000 -762.500
21555525.000 4566455.000 -773.750
21555650.000 4566530.000 -777.500
21555400.000 4566380.000 -770.000
21555450.000 4566487.500 -766.250
21555225.000 4566100.000 -756.250
21555300.000 4565740.000 -727.500
21555150.000 4566165.000 -777.500
21554900.000 4565950.000 -785.000
21554700.000 4566660.000 -620.000
21554625.000 4566375.000 -665.000
21555350.000 4566522.500 -735.000
21554825.000 4566732.500 -622.500
21555300.000 4566665.000 -700.000
21555500.000 4566595.000 -762.500
21554950.000 4566805.000 -625.000
21555250.000 4566807.500 -665.000
21555550.000 4566702.500 -758.750
21555075.000 4566877.500 -627.500
21555200.000 4566950.000 -630.000
21555600.000 4566810.000 -755.000
21555800.000 4567357.500 -686.250
21556100.000 4567252.500 -780.000
21555900.000 4566680.000 -785.000
21556400.000 4567765.000 -742.500
21556600.000 4567695.000 -805.000
21556325.000 4567155.000 -802.500
21557000.000 4568172.500 -798.750
21557100.000 4568137.500 -830.000
21556750.000 4567630.000 -820.000
21557600.000 4568580.000 -855.000
21557175.000 4568105.000 -837.500
21556950.000 4567535.000 -800.000
21558050.000 4568760.000 -861.250
21558025.000 4568875.000 -878.750
21558025.000 4568982.500 -885.000
21558500.000 4568940.000 -867.500
21558000.000 4569062.500 -871.250
21556625.000 4567012.500 -772.500
21556200.000 4566422.500 -743.750
21555900.000 4566565.000 -773.750
21556100.000 4566355.000 -742.500
21555775.000 4566605.000 -781.250
21554525.000 4566442.500 -671.250
21554350.000 4566225.000 -722.500
21554475.000 4566485.000 -661.250
21554250.000 4566310.000 -702.500
21554175.000 4566007.500 -773.750
21554550.000 4566090.000 -710.000
21554025.000 4566135.000 -743.750
21554000.000 4565790.000 -825.000
21554475.000 4565805.000 -755.000
21553800.000 4565960.000 -785.000
21553875.000 4565760.000 -783.750
21553725.000 4565887.500 -753.750
21553900.000 4565702.500 -801.250
21553800.000 4565615.000 -777.500
21553925.000 4565622.500 -801.250
21554225.000 4565420.000 -782.500
21554050.000 4565320.000 -765.000
21554400.000 4565520.000 -800.000
21554250.000 4565357.500 -765.000
21554650.000 4565735.000 -792.500
21554875.000 4565540.000 -728.750
21555050.000 4565820.000 -742.500
21555000.000 4565500.000 -721.250
21555075.000 4565470.000 -697.500
21554700.000 4565260.000 -715.000
21555450.000 4565680.000 -680.000
21555125.000 4565447.500 -677.500
21554475.000 4565162.500 -701.250
21554250.000 4565065.000 -687.500
21554100.000 4565195.000 -730.000
21554025.000 4564967.500 -673.750
21553875.000 4565220.000 -747.500
21553950.000 4565032.500 -695.000
21553850.000 4565455.000 -777.500
21553775.000 4565287.500 -753.750
21553700.000 4565527.500 -753.750
21553750.000 4565730.000 -742.500
21553625.000 4565700.000 -701.250
21553650.000 4565815.000 -722.500
21553600.000 4565440.000 -730.000
21553500.000 4565670.000 -660.000
21553575.000 4565742.500 -691.250
21553250.000 4565320.000 -718.750
21553325.000 4565147.500 -771.250
21553000.000 4564970.000 -777.500
21553700.000 4565120.000 -730.000
21553400.000 4564907.500 -771.250
21553050.000 4564855.000 -812.500
21553800.000 4564870.000 -660.000
21553475.000 4564720.000 -718.750
21553100.000 4564695.000 -812.500
21553475.000 4564715.000 -718.750
21553150.000 4564570.000 -777.500
21553475.000 4564700.000 -711.250
21553150.000 4564560.000 -777.500
21553150.000 4564530.000 -762.500
21552825.000 4564405.000 -836.250
21552825.000 4564420.000 -836.250
21552825.000 4564360.000 -813.750
21552500.000 4564250.000 -895.000
21552500.000 4564190.000 -865.000
21552500.000 4564270.000 -895.000
21552800.000 4564482.500 -853.750
21552775.000 4564562.500 -853.750
21552750.000 4564620.000 -836.250
21560150.000 4569725.000 -915.000
21560100.000 4569955.000 -950.000
21560525.000 4569937.500 -932.500
21559700.000 4570180.000 -968.750
21560100.000 4570170.000 -962.500
21559675.000 4570240.000 -986.250
21560050.000 4570290.000 -997.500
21559625.000 4570302.500 -988.750
21559950.000 4570415.000 -1002.500
21559550.000 4570542.500 -947.500
21559900.000 4570575.000 -975.000
21560250.000 4570607.500 -1002.500
21560275.000 4570527.500 -1016.250
21560600.000 4570640.000 -1030.000
21560425.000 4570340.000 -1008.750
21560800.000 4570390.000 -1020.000
21560500.000 4570160.000 -956.250
21560900.000 4570150.000 -950.000
21560500.000 4570052.500 -950.000

POLYGONS 308 1232
3 5 9 10
3 171 1 169
3 24 26 25
3 176 173 174
3 100 75 60
3 164 151 148
3 44 47 43
3 20 91 24
3 15 13 14
3 110 108 107
3 97 98 99
3 105 109 106
3 75 72 60
3 56 47 99
3 80 84 83
3 60 58 100
3 91 88 24
3 17 14 20
3 34 30 27
3 116 115 117
3 147 149 146
3 6 5 10
3 163 153 151
3 19 22 21
3 137 139 138
3 87 90 89
3 145 144 143
3 32 30 33
3 117 130 119
3 88 89 26
3 183 182 184
3 172 174 171
3 33 36 35
3 76 73 74
3 0 5 1
3 107 105 104
3 51 52 53
3 52 126 53
3 114 136 134
3 86 87 89
3 79 80 82
3 65 66 63
3 60 57 58
3 17 20 19
3 49 50 51
3 132 146 133
3 38 81 97
3 155 153 158
3 64 122 123
3 173 1 171
3 13 9 11
3 31 30 32
3 108 113 115
3 104 102 103
3 180 178 172
3 181 180 182
3 16 15 17
3 112 139 137
3 58 57 56
3 46 49 48
3 81 38 84
3 169 6 167
3 78 77 74
3 36 40 42
3 137 136 114
3 136 140 135
3 92 94 12
3 138 140 136
3 126 64 124
3 157 158 162
3 78 75 100
3 175 173 176
3 93 8 95
3 99 58 56
3 75 71 72
3 144 146 140
3 180 172 170
3 119 130 129
3 84 38 96
3 62 61 59
3 154 152 155
3 154 149 152
3 12 7 8
3 45 46 48
3 37 36 33
3 99 47 44
3 73 71 74
3 118 116 119
3 99 44 97
3 6 10 166
3 170 169 167
3 170 172 169
3 104 105 102
3 102 106 68
3 27 28 34
3 52 55 126
3 65 68 66
3 64 123 124
3 31 29 30
3 8 0 4
3 1 5 6
3 59 54 57
3 70 69 71
3 118 108 116
3 95 8 4
3 148 144 145
3 67 61 69
3 69 61 62
3 81 98 97
3 100 58 98
3 82 83 85
3 151 147 148
3 87 96 90
3 94 11 12
3 37 33 34
3 156 155 157
3 41 44 40
3 125 118 128
3 26 24 88
3 34 33 30
3 113 114 115
3 19 21 18
3 22 24 25
3 8 7 0
3 141 140 138
3 108 118 109
3 32 33 35
3 124 125 127
3 27 30 29
3 78 81 80
3 68 106 66
3 50 49 46
3 3 1 175
3 27 25 28
3 138 136 137
3 13 11 14
3 152 150 153
3 105 108 109
3 88 85 86
3 54 55 52
3 162 160 157
3 130 133 131
3 15 9 13
3 63 122 64
3 148 147 144
3 42 40 43
3 169 1 6
3 83 87 86
3 89 90 26
3 96 38 39
3 123 125 124
3 42 43 45
3 67 68 65
3 25 26 90
3 132 133 130
3 93 95 88
3 60 72 59
3 72 71 69
3 47 50 46
3 97 44 41
3 110 112 111
3 165 148 145
3 174 173 171
3 117 132 130
3 7 5 0
3 82 80 83
3 108 110 111
3 107 108 105
3 12 11 7
3 59 57 60
3 143 140 141
3 0 1 2
3 78 74 75
3 23 22 29
3 128 119 129
3 157 159 156
3 50 52 51
3 22 27 29
3 94 91 20
3 126 124 127
3 16 9 15
3 146 149 133
3 38 97 41
3 118 125 121
3 54 50 56
3 72 69 62
3 53 126 127
3 179 177 178
3 38 36 37
3 147 146 144
3 152 153 155
3 139 142 138
3 118 119 128
3 101 102 68
3 157 160 159
3 4 0 2
3 140 146 135
3 54 61 55
3 183 181 182
3 79 78 80
3 15 14 17
3 184 167 168
3 11 9 7
3 28 90 96
3 22 23 21
3 152 149 150
3 55 64 126
3 91 92 88
3 67 101 68
3 77 78 79
3 73 70 71
3 24 22 19
3 77 76 74
3 85 83 86
3 28 96 39
3 98 58 99
3 170 167 184
3 50 54 52
3 7 9 5
3 133 149 131
3 144 140 143
3 111 114 113
3 1 3 2
3 75 74 71
3 36 38 40
3 120 118 121
3 142 141 138
3 19 20 24
3 81 100 98
3 66 120 122
3 25 90 28
3 34 39 37
3 72 62 59
3 55 63 64
3 92 12 93
3 172 171 169
3 38 41 40
3 134 135 132
3 177 174 178
3 155 158 157
3 120 121 122
3 122 121 123
3 176 174 177
3 39 38 37
3 167 6 166
3 22 25 27
3 91 94 92
3 18 17 19
3 70 67 69
3 102 105 106
3 34 28 39
3 47 46 43
3 92 93 88
3 135 146 132
3 56 50 47
3 136 135 134
3 179 178 180
3 115 134 117
3 111 112 137
3 14 94 20
3 103 102 101
3 163 151 164
3 88 86 89
3 66 122 63
3 61 54 59
3 164 165 162
3 16 17 18
3 61 63 55
3 181 179 180
3 106 109 120
3 182 170 184
3 154 155 156
3 164 148 165
3 108 111 113
3 116 117 119
3 163 164 162
3 151 150 147
3 121 125 123
3 93 12 8
3 117 134 132
3 61 65 63
3 158 163 162
3 61 67 65
3 175 1 173
3 178 174 172
3 83 84 87
3 109 118 120
3 108 115 116
3 153 150 151
3 23 29 31
3 66 106 120
3 158 153 163
3 11 94 14
3 57 54 56
3 81 78 100
3 45 43 46
3 114 134 115
3 80 81 84
3 137 114 111
3 84 96 87
3 160 161 159
3 167 166 168
3 183 184 168
3 44 43 40
3 129 130 131
3 67 103 101
3 182 180 170
3 150 149 147

POINT_DATA 185
COLOR_SCALARS GocadColor 4
0.0930037 0.0930037 0.439216 1
0.0930037 0.0930037 0.439216 1
0.0930037 0.0930037 0.439216 1
0.0930037 0.0930037 0.439216 1
0.0930037 0.0930037 0.439216 1
0.0930037 0.0930037 0.439216 1
0.0930037 0.0930037 0.439216 1
0.0930037 0.0930037 0.439216 1
0.0930037 0.0930037 0.439216 1
0.0930037 0.0930037 0.439216 1
0.0930037 0.0930037 0.439216 1
0.0930037 0.0930037 0.439216 1
0.0930037 0.0930037 0.439216 1
0.0930037 0.0930037 0.439216 1
0.0930037 0.0930037 0.439216 1
0.0930037 0.0930037 0.439216 1
0.0930037 0.0930037 0.439216 1
0.0930037 0.0930037 0.439216 1
0.0930037 0.0930037 0.439216 1
0.0930037 0.0930037 0.439216 1
0.0930037 0.0930037 0.439216 1
0.0930037 0.0930037 0.439216 1
0.0930037 0.0930037 0.439216 1
0.0930037 0.0930037 0.439216 1
0.0930037 0.0930037 0.439216 1
0.0930037 0.0930037 0.439216 1
0.0930037 0.0930037 0.439216 1
0.0930037 0.0930037 0.439216 1
0.0930037 0.0930037 0.439216 1
0.0930037 0.0930037 0.439216 1
0.0930037 0.0930037 0.439216 1
0.0930037 0.0930037 0.439216 1
0.0930037 0.0930037 0.439216 1
0.0930037 0.0930037 0.439216 1
0.0930037 0.0930037 0.439216 1
0.0930037 0.0930037 0.439216 1
0.0930037 0.0930037 0.439216 1
0.0930037 0.0930037 0.439216 1
0.0930037 0.0930037 0.439216 1
0.0930037 0.0930037 0.439216 1
0.0930037 0.0930037 0.439216 1
0.0930037 0.0930037 0.439216 1
0.0930037 0.0930037 0.439216 1
0.0930037 0.0930037 0.439216 1
0.0930037 0.0930037 0.439216 1
0.0930037 0.0930037 0.439216 1
0.0930037 0.0930037 0.439216 1
0.0930037 0.0930037 0.439216 1
0.0930037 0.0930037 0.439216 1
0.0930037 0.0930037 0.439216 1
0.0930037 0.0930037 0.439216 1
0.0930037 0.0930037 0.439216 1
0.0930037 0.0930037 0.439216 1
0.0930037 0.0930037 0.439216 1
0.0930037 0.0930037 0.439216 1
0.0930037 0.0930037 0.439216 1
0.0930037 0.0930037 0.439216 1
0.0930037 0.0930037 0.439216 1
0.0930037 0.0930037 0.439216 1
0.0930037 0.0930037 0.439216 1
0.0930037 0.0930037 0.439216 1
0.0930037 0.0930037 0.439216 1
0.0930037 0.0930037 0.439216 1
0.0930037 0.0930037 0.439216 1
0.0930037 0.0930037 0.439216 1
0.0930037 0.0930037 0.439216 1
0.0930037 0.0930037 0.439216 1
0.0930037 0.0930037 0.439216 1
0.0930037 0.0930037 0.439216 1
0.0930037 0.0930037 0.439216 1
0.0930037 0.0930037 0.439216 1
0.0930037 0.0930037 0.439216 1
0.0930037 0.0930037 0.439216 1
0.0930037 0.0930037 0.439216 1
0.0930037 0.0930037 0.439216 1
0.0930037 0.0930037 0.439216 1
0.0930037 0.0930037 0.439216 1
0.0930037 0.0930037 0.439216 1
0.0930037 0.0930037 0.439216 1
0.0930037 0.0930037 0.439216 1
0.0930037 0.0930037 0.439216 1
0.0930037 0.0930037 0.439216 1
0.0930037 0.0930037 0.439216 1
0.0930037 0.0930037 0.439216 1
0.0930037 0.0930037 0.439216 1
0.0930037 0.0930037 0.439216 1
0.0930037 0.0930037 0.439216 1
0.0930037 0.0930037 0.439216 1
0.0930037 0.0930037 0.439216 1
0.0930037 0.0930037 0.439216 1
0.0930037 0.0930037 0.439216 1
0.0930037 0.0930037 0.439216 1
0.0930037 0.0930037 0.439216 1
0.0930037 0.0930037 0.439216 1
0.0930037 0.0930037 0.439216 1
0.0930037 0.0930037 0.439216 1
0.0930037 0.0930037 0.439216 1
0.0930037 0.0930037 0.439216 1
0.0930037 0.0930037 0.439216 1
0.0930037 0.0930037 0.439216 1
0.0930037 0.0930037 0.439216 1
0.0930037 0.0930037 0.439216 1
0.0930037 0.0930037 0.439216 1
0.0930037 0.0930037 0.439216 1
0.0930037 0.0930037 0.439216 1
0.0930037 0.0930037 0.439216 1
0.0930037 0.0930037 0.439216 1
0.0930037 0.0930037 0.439216 1
0.0930037 0.0930037 0.439216 1
0.0930037 0.0930037 0.439216 1
0.0930037 0.0930037 0.439216 1
0.0930037 0.0930037 0.439216 1
0.0930037 0.0930037 0.439216 1
0.0930037 0.0930037 0.439216 1
0.0930037 0.0930037 0.439216 1
0.0930037 0.0930037 0.439216 1
0.0930037 0.0930037 0.439216 1
0.0930037 0.0930037 0.439216 1
0.0930037 0.0930037 0.439216 1
0.0930037 0.0930037 0.439216 1
0.0930037 0.0930037 0.439216 1
0.0930037 0.0930037 0.439216 1
0.0930037 0.0930037 0.439216 1
0.0930037 0.0930037 0.439216 1
0.0930037 0.0930037 0.439216 1
0.0930037 0.0930037 0.439216 1
0.0930037 0.0930037 0.439216 1
0.0930037 0.0930037 0.439216 1
0.0930037 0.0930037 0.439216 1
0.0930037 0.0930037 0.439216 1
0.0930037 0.0930037 0.439216 1
0.0930037 0.0930037 0.439216 1
0.0930037 0.0930037 0.439216 1
0.0930037 0.0930037 0.439216 1
0.0930037 0.0930037 0.439216 1
0.0930037 0.0930037 0.439216 1
0.0930037 0.0930037 0.439216 1
0.0930037 0.0930037 0.439216 1
0.0930037 0.0930037 0.439216 1
0.0930037 0.0930037 0.439216 1
0.0930037 0.0930037 0.439216 1
0.0930037 0.0930037 0.439216 1
0.0930037 0.0930037 0.439216 1
0.0930037 0.0930037 0.439216 1
0.0930037 0.0930037 0.439216 1
0.0930037 0.0930037 0.439216 1
0.0930037 0.0930037 0.439216 1
0.0930037 0.0930037 0.439216 1
0.0930037 0.0930037 0.439216 1
0.0930037 0.0930037 0.439216 1
0.0930037 0.0930037 0.439216 1
0.0930037 0.0930037 0.439216 1
0.0930037 0.0930037 0.439216 1
0.0930037 0.0930037 0.439216 1
0.0930037 0.0930037 0.439216 1
0.0930037 0.0930037 0.439216 1
0.0930037 0.0930037 0.439216 1
0.0930037 0.0930037 0.439216 1
0.0930037 0.0930037 0.439216 1
0.0930037 0.0930037 0.439216 1
0.0930037 0.0930037 0.439216 1
0.0930037 0.0930037 0.439216 1
0.0930037 0.0930037 0.439216 1
0.0930037 0.0930037 0.439216 1
0.0930037 0.0930037 0.439216 1
0.0930037 0.0930037 0.439216 1
0.0930037 0.0930037 0.439216 1
0.0930037 0.0930037 0.439216 1
0.0930037 0.0930037 0.439216 1
0.0930037 0.0930037 0.439216 1
0.0930037 0.0930037 0.439216 1
0.0930037 0.0930037 0.439216 1
0.0930037 0.0930037 0.439216 1
0.0930037 0.0930037 0.439216 1
0.0930037 0.0930037 0.439216 1
0.0930037 0.0930037 0.439216 1
0.0930037 0.0930037 0.439216 1
0.0930037 0.0930037 0.439216 1
0.0930037 0.0930037 0.439216 1
0.0930037 0.0930037 0.439216 1
0.0930037 0.0930037 0.439216 1
0.0930037 0.0930037 0.439216 1
0.0930037 0.0930037 0.439216 1
0.0930037 0.0930037 0.439216 1
0.0930037 0.0930037 0.439216 1

