# vtk DataFile Version 3.0
Gocad TSurf to VTK
ASCII
DATASET POLYDATA
POINTS 1895 float
21584500.000 4573300.000 -1425.000
21584625.000 4573302.500 -1497.500
21584500.000 4573060.000 -1571.250
21584675.000 4572930.000 -1455.000
21584300.000 4572985.000 -1410.000
21585375.000 4573805.000 -1696.250
21585125.000 4573475.000 -1708.750
21585500.000 4573970.000 -1690.000
21585500.000 4573882.500 -1686.250
21585275.000 4574005.000 -1595.000
21584550.000 4573705.000 -1367.500
21585725.000 4574645.000 -1690.000
21585300.000 4574520.000 -1520.000
21586300.000 4574480.000 -1855.000
21586175.000 4574577.500 -1813.750
21585900.000 4573920.000 -1520.000
21586325.000 4574412.500 -1715.000
21585625.000 4573547.500 -1447.500
21585925.000 4573775.000 -1328.750
21585425.000 4573410.000 -1496.250
21585700.000 4573945.000 -1605.000
21585500.000 4573707.500 -1678.750
21585750.000 4573475.000 -1220.000
21585050.000 4573177.500 -1526.250
21585350.000 4573200.000 -1317.500
21585150.000 4572912.500 -1148.750
21585325.000 4572770.000 -870.000
21585000.000 4572460.000 -1192.500
21584500.000 4572640.000 -1375.000
21585550.000 4572415.000 -822.500
21585700.000 4572740.000 -600.000
21585250.000 4572195.000 -1075.000
21585700.000 4572085.000 -795.000
21584800.000 4572140.000 -1425.000
21584300.000 4572485.000 -1262.500
21585250.000 4571852.500 -1155.000
21585000.000 4571660.000 -1363.750
21585700.000 4571890.000 -810.000
21585450.000 4571440.000 -1185.000
21585925.000 4571715.000 -1002.500
21584900.000 4571157.500 -1543.750
21584625.000 4571412.500 -1633.750
21585500.000 4571270.000 -1240.000
21584900.000 4571000.000 -1652.500
21585500.000 4571152.500 -1411.250
21584750.000 4570890.000 -1702.500
21584775.000 4570775.000 -1731.250
21584325.000 4570945.000 -1786.250
21584325.000 4571190.000 -1762.500
21584500.000 4570832.500 -1801.250
21584450.000 4570670.000 -1757.500
21584600.000 4570775.000 -1787.500
21584800.000 4570520.000 -1862.500
21584500.000 4570430.000 -1700.000
21584900.000 4570650.000 -1832.500
21584950.000 4570532.500 -1936.250
21585100.000 4570630.000 -1977.500
21584800.000 4570380.000 -1965.000
21584650.000 4570405.000 -1832.500
21585000.000 4570490.000 -1995.000
21585000.000 4570510.000 -2010.000
21585100.000 4570520.000 -2010.000
21585200.000 4570620.000 -2050.000
21585175.000 4570685.000 -1952.500
21585150.000 4570755.000 -1855.000
21585200.000 4570630.000 -2050.000
21585500.000 4570790.000 -1925.000
21585500.000 4570800.000 -1925.000
21586000.000 4571130.000 -1355.000
21585875.000 4571165.000 -1326.250
21586000.000 4571130.000 -1325.000
21586300.000 4571320.000 -990.000
21586250.000 4571427.500 -982.500
21586225.000 4571692.500 -932.500
21586300.000 4571330.000 -990.000
21586475.000 4571577.500 -877.500
21586600.000 4571520.000 -850.000
21586650.000 4571875.000 -850.000
21587300.000 4572095.000 -786.250
21586600.000 4572260.000 -828.750
21587500.000 4572050.000 -765.000
21587425.000 4572195.000 -786.250
21587350.000 4572340.000 -807.500
21587650.000 4572367.500 -797.500
21587800.000 4572270.000 -780.000
21587800.000 4572280.000 -780.000
21587825.000 4572500.000 -822.500
21587350.000 4572540.000 -832.500
21588200.000 4572470.000 -895.000
21588050.000 4572820.000 -922.500
21587875.000 4572940.000 -907.500
21588200.000 4572480.000 -895.000
21588500.000 4572927.500 -1167.500
21588100.000 4573082.500 -1022.500
21588700.000 4572850.000 -1240.000
21588550.000 4573240.000 -1177.500
21589150.000 4573360.000 -1546.250
21588900.000 4573450.000 -1402.500
21589400.000 4573270.000 -1690.000
21589300.000 4573470.000 -1626.250
21589200.000 4573670.000 -1562.500
21589675.000 4573710.000 -1855.000
21589450.000 4573830.000 -1715.000
21589900.000 4573590.000 -1995.000
21589775.000 4573805.000 -1936.250
21589650.000 4574025.000 -1877.500
21589900.000 4573600.000 -1995.000
21590075.000 4573977.500 -2041.250
21590300.000 4573820.000 -2135.000
21589525.000 4574237.500 -1818.750
21589625.000 4574292.500 -1853.750
21589400.000 4574450.000 -1760.000
21589850.000 4574135.000 -1947.500
21589100.000 4573870.000 -1498.750
21589000.000 4574220.000 -1532.500
21588400.000 4573630.000 -1115.000
21589300.000 4574430.000 -1727.500
21589100.000 4574390.000 -1662.500
21589400.000 4574502.500 -1783.750
21589400.000 4574555.000 -1807.500
21589400.000 4574607.500 -1831.250
21589400.000 4574660.000 -1855.000
21589000.000 4574370.000 -1630.000
21589300.000 4574685.000 -1775.000
21588300.000 4573810.000 -1130.000
21588300.000 4573915.000 -1137.500
21587925.000 4574017.500 -998.750
21588875.000 4574387.500 -1557.500
21588450.000 4574237.500 -1253.750
21589000.000 4574565.000 -1582.500
21589000.000 4574760.000 -1535.000
21589200.000 4574710.000 -1695.000
21589100.000 4574735.000 -1615.000
21588650.000 4574655.000 -1450.000
21588950.000 4574787.500 -1541.250
21588900.000 4574815.000 -1547.500
21588850.000 4574842.500 -1553.750
21588800.000 4574870.000 -1560.000
21588075.000 4574267.500 -1126.250
21587925.000 4574330.000 -1146.250
21587975.000 4574192.500 -1076.250
21588600.000 4574832.500 -1528.750
21588000.000 4574500.000 -1275.000
21588700.000 4574900.000 -1553.750
21588600.000 4574930.000 -1547.500
21588500.000 4574960.000 -1541.250
21588200.000 4574757.500 -1466.250
21588400.000 4574990.000 -1535.000
21587925.000 4574815.000 -1565.000
21588225.000 4575017.500 -1640.000
21588050.000 4575045.000 -1745.000
21588275.000 4575065.000 -1663.750
21588150.000 4575140.000 -1792.500
21588025.000 4575215.000 -1921.250
21587875.000 4575072.500 -1850.000
21587900.000 4575290.000 -2050.000
21587850.000 4574910.000 -1695.000
21587700.000 4574952.500 -1772.500
21587600.000 4574735.000 -1582.500
21587725.000 4575190.000 -1916.250
21587375.000 4575112.500 -1885.000
21587875.000 4575332.500 -1987.500
21587850.000 4575375.000 -1925.000
21587825.000 4575417.500 -1862.500
21587800.000 4575460.000 -1800.000
21587300.000 4575140.000 -1885.000
21587650.000 4575522.500 -1817.500
21587250.000 4574945.000 -1807.500
21586925.000 4574660.000 -1581.250
21587325.000 4574682.500 -1607.500
21586425.000 4574485.000 -1761.250
21587100.000 4575175.000 -1867.500
21586450.000 4575080.000 -1825.000
21587250.000 4575425.000 -1877.500
21586400.000 4575250.000 -1800.000
21587500.000 4575585.000 -1835.000
21587350.000 4575647.500 -1852.500
21587200.000 4575710.000 -1870.000
21587000.000 4575810.000 -1905.000
21586450.000 4575695.000 -1912.500
21587050.000 4575840.000 -1911.250
21586900.000 4575970.000 -1952.500
21586800.000 4575910.000 -1940.000
21586750.000 4576100.000 -1993.750
21586600.000 4576010.000 -1975.000
21586600.000 4576230.000 -2035.000
21586400.000 4576110.000 -2010.000
21586500.000 4576342.500 -1997.500
21586350.000 4576252.500 -1978.750
21586575.000 4576385.000 -2017.500
21586550.000 4576540.000 -2000.000
21586400.000 4576460.000 -1960.000
21586525.000 4576695.000 -1982.500
21586250.000 4576537.500 -1916.250
21586300.000 4576395.000 -1947.500
21586500.000 4576850.000 -1965.000
21586225.000 4576850.000 -1808.750
21585950.000 4576365.000 -1830.000
21586450.000 4576962.500 -1861.250
21586400.000 4577075.000 -1757.500
21586500.000 4576995.000 -1881.250
21586500.000 4577140.000 -1797.500
21586500.000 4577285.000 -1713.750
21586300.000 4577300.000 -1550.000
21586500.000 4577430.000 -1630.000
21586400.000 4577540.000 -1543.750
21586300.000 4577650.000 -1457.500
21586200.000 4577760.000 -1371.250
21586150.000 4577727.500 -1351.250
21586200.000 4577570.000 -1417.500
21586100.000 4577870.000 -1285.000
21586100.000 4577840.000 -1285.000
21585825.000 4577917.500 -1082.500
21585950.000 4577425.000 -1332.500
21585600.000 4577550.000 -1115.000
21586125.000 4577362.500 -1441.250
21585750.000 4577160.000 -1220.000
21585800.000 4577030.000 -1255.000
21585500.000 4577170.000 -1052.500
21585000.000 4577250.000 -850.000
21585450.000 4576985.000 -1021.250
21585200.000 4577025.000 -920.000
21585300.000 4576912.500 -955.000
21585025.000 4577095.000 -840.000
21584900.000 4577180.000 -765.000
21585050.000 4576940.000 -830.000
21584950.000 4577042.500 -776.250
21584950.000 4577035.000 -776.250
21584575.000 4576847.500 -1008.750
21584900.000 4577170.000 -765.000
21584850.000 4577367.500 -667.500
21584700.000 4577297.500 -615.000
21585000.000 4577475.000 -756.250
21584850.000 4577605.000 -612.500
21585450.000 4577700.000 -955.000
21585300.000 4577850.000 -795.000
21585550.000 4577995.000 -880.000
21585825.000 4577940.000 -1082.500
21585550.000 4578010.000 -880.000
21585275.000 4578072.500 -677.500
21585275.000 4578080.000 -677.500
21585000.000 4578150.000 -475.000
21585150.000 4578000.000 -635.000
21585000.000 4577925.000 -568.750
21585000.000 4577700.000 -662.500
21584700.000 4577970.000 -375.000
21584750.000 4577765.000 -472.500
21584700.000 4578255.000 -317.500
21584475.000 4578112.500 -242.500
21584400.000 4577790.000 -210.000
21584400.000 4578360.000 -160.000
21584250.000 4578265.000 -110.000
21584250.000 4577985.000 -118.750
21584100.000 4578465.000 -2.500
21583950.000 4578375.000 63.750
21584100.000 4578180.000 -27.500
21583800.000 4578570.000 155.000
21583850.000 4578050.000 -70.000
21583000.000 4577865.000 -483.750
21583650.000 4577665.000 -312.500
21582900.000 4578430.000 -287.500
21582900.000 4578070.000 -390.000
21583575.000 4578625.000 63.750
21583125.000 4578735.000 -118.750
21583650.000 4578672.500 168.750
21583500.000 4578775.000 182.500
21583350.000 4578877.500 196.250
21583200.000 4578980.000 210.000
21582900.000 4578790.000 -210.000
21582875.000 4578950.000 -101.250
21582700.000 4578315.000 -467.500
21582250.000 4578795.000 -452.500
21582150.000 4578580.000 -601.250
21582500.000 4578910.000 -285.000
21582300.000 4578975.000 -310.000
21582700.000 4579035.000 -97.500
21582600.000 4579162.500 -36.250
21582850.000 4579110.000 7.500
21582500.000 4579290.000 30.000
21581975.000 4579222.500 -327.500
21582825.000 4579270.000 116.250
21582800.000 4579430.000 225.000
21583000.000 4579205.000 217.500
21582900.000 4579317.500 221.250
21583100.000 4579092.500 213.750
21582475.000 4579525.000 106.250
[...]
POINT_DATA 1895
COLOR_SCALARS GocadColor 4
0.741176 0.321569 0.741176 1
0.741176 0.321569 0.741176 1
0.741176 0.321569 0.741176 1
0.741176 0.321569 0.741176 1
0.741176 0.321569 0.741176 1
0.741176 0.321569 0.741176 1
0.741176 0.321569 0.741176 1
0.741176 0.321569 0.741176 1
0.741176 0.321569 0.741176 1
0.741176 0.321569 0.741176 1
0.741176 0.321569 0.741176 1
0.741176 0.321569 0.741176 1
0.741176 0.321569 0.741176 1
0.741176 0.321569 0.741176 1
0.741176 0.321569 0.741176 1
0.741176 0.321569 0.741176 1
0.741176 0.321569 0.741176 1
0.741176 0.321569 0.741176 1
0.741176 0.321569 0.741176 1
0.741176 0.321569 0.741176 1
0.741176 0.321569 0.741176 1
0.741176 0.321569 0.741176 1
0.741176 0.321569 0.741176 1
0.741176 0.321569 0.741176 1
0.741176 0.321569 0.741176 1
0.741176 0.321569 0.741176 1
0.741176 0.321569 0.741176 1
0.741176 0.321569 0.741176 1
0.741176 0.321569 0.741176 1
0.741176 0.321569 0.741176 1
0.741176 0.321569 0.741176 1
0.741176 0.321569 0.741176 1
0.741176 0.321569 0.741176 1
0.741176 0.321569 0.741176 1
0.741176 0.321569 0.741176 1
0.741176 0.321569 0.741176 1
0.741176 0.321569 0.741176 1
0.741176 0.321569 0.741176 1
0.741176 0.321569 0.741176 1
0.741176 0.321569 0.741176 1
0.741176 0.321569 0.741176 1
0.741176 0.321569 0.741176 1
0.741176 0.321569 0.741176 1
0.741176 0.321569 0.741176 1
0.741176 0.321569 0.741176 1
0.741176 0.321569 0.741176 1
0.741176 0.321569 0.741176 1
0.741176 0.321569 0.741176 1
0.741176 0.321569 0.741176 1
0.741176 0.321569 0.741176 1
0.741176 0.321569 0.741176 1
0.741176 0.321569 0.741176 1
0.741176 0.321569 0.741176 1
0.741176 0.321569 0.741176 1
0.741176 0.321569 0.741176 1
0.741176 0.321569 0.741176 1
0.741176 0.321569 0.741176 1
0.741176 0.321569 0.741176 1
0.741176 0.321569 0.741176 1
0.741176 0.321569 0.741176 1
0.741176 0.321569 0.741176 1
0.741176 0.321569 0.741176 1
0.741176 0.321569 0.741176 1
0.741176 0.321569 0.741176 1
0.741176 0.321569 0.741176 1
0.741176 0.321569 0.741176 1
0.741176 0.321569 0.741176 1
0.741176 0.321569 0.741176 1
0.741176 0.321569 0.741176 1
0.741176 0.321569 0.741176 1
0.741176 0.321569 0.741176 1
0.741176 0.321569 0.741176 1
0.741176 0.321569 0.741176 1
0.741176 0.321569 0.741176 1
0.741176 0.321569 0.741176 1
0.741176 0.321569 0.741176 1
0.741176 0.321569 0.741176 1
0.741176 0.321569 0.741176 1
0.741176 0.321569 0.741176 1
0.741176 0.321569 0.741176 1
0.741176 0.321569 0.741176 1
0.741176 0.321569 0.741176 1
0.741176 0.321569 0.741176 1
0.741176 0.321569 0.741176 1
0.741176 0.321569 0.741176 1
0.741176 0.321569 0.741176 1
0.741176 0.321569 0.741176 1
0.741176 0.321569 0.741176 1
0.741176 0.321569 0.741176 1
0.741176 0.321569 0.741176 1
0.741176 0.321569 0.741176 1
0.741176 0.321569 0.741176 1
0.741176 0.321569 0.741176 1
0.741176 0.321569 0.741176 1
0.741176 0.321569 0.741176 1
0.741176 0.321569 0.741176 1
0.741176 0.321569 0.741176 1
0.741176 0.321569 0.741176 1
0.741176 0.321569 0.741176 1
0.741176 0.321569 0.741176 1
0.741176 0.321569 0.741176 1
0.741176 0.321569 0.741176 1
0.741176 0.321569 0.741176 1
0.741176 0.321569 0.741176 1
0.741176 0.321569 0.741176 1
0.741176 0.321569 0.741176 1
0.741176 0.321569 0.741176 1
0.741176 0.321569 0.741176 1
0.741176 0.321569 0.741176 1
0.741176 0.321569 0.741176 1
0.741176 0.321569 0.741176 1
0.741176 0.321569 0.741176 1
0.741176 0.321569 0.741176 1
0.741176 0.321569 0.741176 1
0.741176 0.321569 0.741176 1
0.741176 0.321569 0.741176 1
0.741176 0.321569 0.741176 1
0.741176 0.321569 0.741176 1
0.741176 0.321569 0.741176 1
0.741176 0.321569 0.741176 1
0.741176 0.321569 0.741176 1
0.741176 0.321569 0.741176 1
0.741176 0.321569 0.741176 1
0.741176 0.321569 0.741176 1
0.741176 0.321569 0.741176 1
0.741176 0.321569 0.741176 1
0.741176 0.321569 0.741176 1
0.741176 0.321569 0.741176 1
0.741176 0.321569 0.741176 1
0.741176 0.321569 0.741176 1
0.741176 0.321569 0.741176 1
0.741176 0.321569 0.741176 1
0.741176 0.321569 0.741176 1
0.741176 0.321569 0.741176 1
0.741176 0.321569 0.741176 1
0.741176 0.321569 0.741176 1
0.741176 0.321569 0.741176 1
0.741176 0.321569 0.741176 1
0.741176 0.321569 0.741176 1
0.741176 0.321569 0.741176 1
0.741176 0.321569 0.741176 1
0.741176 0.321569 0.741176 1
0.741176 0.321569 0.741176 1
0.741176 0.321569 0.741176 1
0.741176 0.321569 0.741176 1
0.741176 0.321569 0.741176 1
0.741176 0.321569 0.741176 1
0.741176 0.321569 0.741176 1
0.741176 0.321569 0.741176 1
0.741176 0.321569 0.741176 1
0.741176 0.321569 0.741176 1
0.741176 0.321569 0.741176 1
0.741176 0.321569 0.741176 1
0.741176 0.321569 0.741176 1
0.741176 0.321569 0.741176 1
0.741176 0.321569 0.741176 1
0.741176 0.321569 0.741176 1
0.741176 0.321569 0.741176 1
0.741176 0.321569 0.741176 1
0.741176 0.321569 0.741176 1
0.741176 0.321569 0.741176 1
0.741176 0.321569 0.741176 1
0.741176 0.321569 0.741176 1
0.741176 0.321569 0.741176 1
0.741176 0.321569 0.741176 1
0.741176 0.321569 0.741176 1
0.741176 0.321569 0.741176 1
0.741176 0.321569 0.741176 1
0.741176 0.321569 0.741176 1
0.741176 0.321569 0.741176 1
0.741176 0.321569 0.741176 1
0.741176 0.321569 0.741176 1
0.741176 0.321569 0.741176 1
0.741176 0.321569 0.741176 1
0.741176 0.321569 0.741176 1
0.741176 0.321569 0.741176 1
0.741176 0.321569 0.741176 1
0.741176 0.321569 0.741176 1
0.741176 0.321569 0.741176 1
0.741176 0.321569 0.741176 1
0.741176 0.321569 0.741176 1
0.741176 0.321569 0.741176 1
0.741176 0.321569 0.741176 1
0.741176 0.321569 0.741176 1
0.741176 0.321569 0.741176 1
0.741176 0.321569 0.741176 1
0.741176 0.321569 0.741176 1
0.741176 0.321569 0.741176 1
0.741176 0.321569 0.741176 1
0.741176 0.321569 0.741176 1
0.741176 0.321569 0.741176 1
0.741176 0.321569 0.741176 1
0.741176 0.321569 0.741176 1
0.741176 0.321569 0.741176 1
0.741176 0.321569 0.741176 1
0.741176 0.321569 0.741176 1
0.741176 0.321569 0.741176 1
0.741176 0.321569 0.741176 1
0.741176 0.321569 0.741176 1
0.741176 0.321569 0.741176 1
0.741176 0.321569 0.741176 1
0.741176 0.321569 0.741176 1
0.741176 0.321569 0.741176 1
0.741176 0.321569 0.741176 1
0.741176 0.321569 0.741176 1
0.741176 0.321569 0.741176 1
0.741176 0.321569 0.741176 1
0.741176 0.321569 0.741176 1
0.741176 0.321569 0.741176 1
0.741176 0.321569 0.741176 1
0.741176 0.321569 0.741176 1
0.741176 0.321569 0.741176 1
0.741176 0.321569 0.741176 1
0.741176 0.321569 0.741176 1
0.741176 0.321569 0.741176 1
0.741176 0.321569 0.741176 1
0.741176 0.321569 0.741176 1
0.741176 0.321569 0.741176 1
0.741176 0.321569 0.741176 1
0.741176 0.321569 0.741176 1
0.741176 0.321569 0.741176 1
0.741176 0.321569 0.741176 1
0.741176 0.321569 0.741176 1
0.741176 0.321569 0.741176 1
0.741176 0.321569 0.741176 1
0.741176 0.321569 0.741176 1
0.741176 0.321569 0.741176 1
0.741176 0.321569 0.741176 1
0.741176 0.321569 0.741176 1
0.741176 0.321569 0.741176 1
0.741176 0.321569 0.741176 1
0.741176 0.321569 0.741176 1
0.741176 0.321569 0.741176 1
0.741176 0.321569 0.741176 1
0.741176 0.321569 0.741176 1
0.741176 0.321569 0.741176 1
0.741176 0.321569 0.741176 1
0.741176 0.321569 0.741176 1
0.741176 0.321569 0.741176 1
0.741176 0.321569 0.741176 1
0.741176 0.321569 0.741176 1
0.741176 0.321569 0.741176 1
0.741176 0.321569 0.741176 1
0.741176 0.321569 0.741176 1
0.741176 0.321569 0.741176 1
0.741176 0.321569 0.741176 1
0.741176 0.321569 0.741176 1
0.741176 0.321569 0.741176 1
0.741176 0.321569 0.741176 1
0.741176 0.321569 0.741176 1
0.741176 0.321569 0.741176 1
0.741176 0.321569 0.741176 1
0.741176 0.321569 0.741176 1
0.741176 0.321569 0.741176 1
0.741176 0.321569 0.741176 1
0.741176 0.321569 0.741176 1
0.741176 0.321569 0.741176 1
0.741176 0.321569 0.741176 1
0.741176 0.321569 0.741176 1
0.741176 0.321569 0.741176 1
0.741176 0.321569 0.741176 1
0.741176 0.321569 0.741176 1
0.741176 0.321569 0.741176 1
0.741176 0.321569 0.741176 1
0.741176 0.321569 0.741176 1
0.741176 0.321569 0.741176 1
0.741176 0.321569 0.741176 1
0.741176 0.321569 0.741176 1
0.741176 0.321569 0.741176 1
0.741176 0.321569 0.741176 1
0.741176 0.321569 0.741176 1
0.741176 0.321569 0.741176 1
0.741176 0.321569 0.741176 1
0.741176 0.321569 0.741176 1
0.741176 0.321569 0.741176 1
0.741176 0.321569 0.741176 1
0.741176 0.321569 0.741176 1
0.741176 0.321569 0.741176 1
0.741176 0.321569 0.741176 1
0.741176 0.321569 0.741176 1
0.741176 0.321569 0.741176 1
0.741176 0.321569 0.741176 1
0.741176 0.321569 0.741176 1
0.741176 0.321569 0.741176 1
0.741176 0.321569 0.741176 1
0.741176 0.321569 0.741176 1
0.741176 0.321569 0.741176 1
0.741176 0.321569 0.741176 1
0.741176 0.321569 0.741176 1
0.741176 0.321569 0.741176 1
0.741176 0.321569 0.741176 1
0.741176 0.321569 0.741176 1
0.741176 0.321569 0.741176 1
0.741176 0.321569 0.741176 1
0.741176 0.321569 0.741176 1
0.741176 0.321569 0.741176 1
0.741176 0.321569 0.741176 1
0.741176 0.321569 0.741176 1
0.741176 0.321569 0.741176 1
0.741176 0.321569 0.741176 1
0.741176 0.321569 0.741176 1
0.741176 0.321569 0.741176 1
0.741176 0.321569 0.741176 1
0.741176 0.321569 0.741176 1
0.741176 0.321569 0.741176 1
0.741176 0.321569 0.741176 1
0.741176 0.321569 0.741176 1
0.741176 0.321569 0.741176 1
0.741176 0.321569 0.741176 1
0.741176 0.321569 0.741176 1
0.741176 0.321569 0.741176 1
0.741176 0.321569 0.741176 1
0.741176 0.321569 0.741176 1
0.741176 0.321569 0.741176 1
0.741176 0.321569 0.741176 1
0.741176 0.321569 0.741176 1
0.741176 0.321569 0.741176 1
0.741176 0.321569 0.741176 1
0.741176 0.321569 0.741176 1
0.741176 0.321569 0.741176 1
0.741176 0.321569 0.741176 1
0.741176 0.321569 0.741176 1
0.741176 0.321569 0.741176 1
0.741176 0.321569 0.741176 1
0.741176 0.321569 0.741176 1
0.741176 0.321569 0.741176 1
0.741176 0.321569 0.741176 1
0.741176 0.321569 0.741176 1
0.741176 0.321569 0.741176 1
0.741176 0.321569 0.741176 1
0.741176 0.321569 0.741176 1
0.741176 0.321569 0.741176 1
0.741176 0.321569 0.741176 1
0.741176 0.321569 0.741176 1
0.741176 0.321569 0.741176 1
0.741176 0.321569 0.741176 1
0.741176 0.321569 0.741176 1
0.741176 0.321569 0.741176 1
0.741176 0.321569 0.741176 1
0.741176 0.321569 0.741176 1
0.741176 0.321569 0.741176 1
0.741176 0.321569 0.741176 1
0.741176 0.321569 0.741176 1
0.741176 0.321569 0.741176 1
0.741176 0.321569 0.741176 1
0.741176 0.321569 0.741176 1
0.741176 0.321569 0.741176 1
0.741176 0.321569 0.741176 1
0.741176 0.321569 0.741176 1
0.741176 0.321569 0.741176 1
0.741176 0.321569 0.741176 1
0.741176 0.321569 0.741176 1
0.741176 0.321569 0.741176 1
0.741176 0.321569 0.741176 1
0.741176 0.321569 0.741176 1
0.741176 0.321569 0.741176 1
0.741176 0.321569 0.741176 1
0.741176 0.321569 0.741176 1
0.741176 0.321569 0.741176 1
0.741176 0.321569 0.741176 1
0.741176 0.321569 0.741176 1
0.741176 0.321569 0.741176 1
0.741176 0.321569 0.741176 1
0.741176 0.321569 0.741176 1
0.741176 0.321569 0.741176 1
0.741176 0.321569 0.741176 1
0.741176 0.321569 0.741176 1
0.741176 0.321569 0.741176 1
0.741176 0.321569 0.741176 1
0.741176 0.321569 0.741176 1
0.741176 0.321569 0.741176 1
0.741176 0.321569 0.741176 1
0.741176 0.321569 0.741176 1
0.741176 0.321569 0.741176 1
0.741176 0.321569 0.741176 1
0.741176 0.321569 0.741176 1
0.741176 0.321569 0.741176 1
0.741176 0.321569 0.741176 1
0.741176 0.321569 0.741176 1
0.741176 0.321569 0.741176 1
0.741176 0.321569 0.741176 1
0.741176 0.321569 0.741176 1
0.741176 0.321569 0.741176 1
0.741176 0.321569 0.741176 1
0.741176 0.321569 0.741176 1
0.741176 0.321569 0.741176 1
0.741176 0.321569 0.741176 1
0.741176 0.321569 0.741176 1
0.741176 0.321569 0.741176 1
0.741176 0.321569 0.741176 1
0.741176 0.321569 0.741176 1
0.741176 0.321569 0.741176 1
0.741176 0.321569 0.741176 1
0.741176 0.321569 0.741176 1
0.741176 0.321569 0.741176 1
0.741176 0.321569 0.741176 1
0.741176 0.321569 0.741176 1
0.741176 0.321569 0.741176 1
0.741176 0.321569 0.741176 1
0.741176 0.321569 0.741176 1
0.741176 0.321569 0.741176 1
0.741176 0.321569 0.741176 1
0.741176 0.321569 0.741176 1
0.741176 0.321569 0.741176 1
0.741176 0.321569 0.741176 1
0.741176 0.321569 0.741176 1
0.741176 0.321569 0.741176 1
0.741176 0.321569 0.741176 1
0.741176 0.321569 0.741176 1
0.741176 0.321569 0.741176 1
0.741176 0.321569 0.741176 1
0.741176 0.321569 0.741176 1
0.741176 0.321569 0.741176 1
0.741176 0.321569 0.741176 1
0.741176 0.321569 0.741176 1
0.741176 0.321569 0.741176 1
0.741176 0.321569 0.741176 1
0.741176 0.321569 0.741176 1
0.741176 0.321569 0.741176 1
0.741176 0.321569 0.741176 1
0.741176 0.321569 0.741176 1
0.741176 0.321569 0.741176 1
0.741176 0.321569 0.741176 1
0.741176 0.321569 0.741176 1
0.741176 0.321569 0.741176 1
0.741176 0.321569 0.741176 1
0.741176 0.321569 0.741176 1
0.741176 0.321569 0.741176 1
0.741176 0.321569 0.741176 1
0.741176 0.321569 0.741176 1
0.741176 0.321569 0.741176 1
0.741176 0.321569 0.741176 1
0.741176 0.321569 0.741176 1
0.741176 0.321569 0.741176 1
0.741176 0.321569 0.741176 1
0.741176 0.321569 0.741176 1
0.741176 0.321569 0.741176 1
0.741176 0.321569 0.741176 1
0.741176 0.321569 0.741176 1
0.741176 0.321569 0.741176 1
0.741176 0.321569 0.741176 1
0.741176 0.321569 0.741176 1
0.741176 0.321569 0.741176 1
0.741176 0.321569 0.741176 1
0.741176 0.321569 0.741176 1
0.741176 0.321569 0.741176 1
0.741176 0.321569 0.741176 1
0.741176 0.321569 0.741176 1
0.741176 0.321569 0.741176 1
0.741176 0.321569 0.741176 1
0.741176 0.321569 0.741176 1
0.741176 0.321569 0.741176 1
0.741176 0.321569 0.741176 1
0.741176 0.321569 0.741176 1
0.741176 0.321569 0.741176 1
0.741176 0.321569 0.741176 1
0.741176 0.321569 0.741176 1
0.741176 0.321569 0.741176 1
0.741176 0.321569 0.741176 1
0.741176 0.321569 0.741176 1
0.741176 0.321569 0.741176 1
0.741176 0.321569 0.741176 1
0.741176 0.321569 0.741176 1
0.741176 0.321569 0.741176 1
0.741176 0.321569 0.741176 1
0.741176 0.321569 0.741176 1
0.741176 0.321569 0.741176 1
0.741176 0.321569 0.741176 1
0.741176 0.321569 0.741176 1
0.741176 0.321569 0.741176 1
0.741176 0.321569 0.741176 1
0.741176 0.321569 0.741176 1
0.741176 0.321569 0.741176 1
0.741176 0.321569 0.741176 1
0.741176 0.321569 0.741176 1
0.741176 0.321569 0.741176 1
0.741176 0.321569 0.741176 1
0.741176 0.321569 0.741176 1
0.741176 0.321569 0.741176 1
0.741176 0.321569 0.741176 1
0.741176 0.321569 0.741176 1
0.741176 0.321569 0.741176 1
0.741176 0.321569 0.741176 1
0.741176 0.321569 0.741176 1
0.741176 0.321569 0.741176 1
0.741176 0.321569 0.741176 1
0.741176 0.321569 0.741176 1
0.741176 0.321569 0.741176 1
0.741176 0.321569 0.741176 1
0.741176 0.321569 0.741176 1
0.741176 0.321569 0.741176 1
0.741176 0.321569 0.741176 1
0.741176 0.321569 0.741176 1
0.741176 0.321569 0.741176 1
0.741176 0.321569 0.741176 1
0.741176 0.321569 0.741176 1
0.741176 0.321569 0.741176 1
0.741176 0.321569 0.741176 1
0.741176 0.321569 0.741176 1
0.741176 0.321569 0.741176 1
0.741176 0.321569 0.741176 1
0.741176 0.321569 0.741176 1
0.741176 0.321569 0.741176 1
0.741176 0.321569 0.741176 1
0.741176 0.321569 0.741176 1
0.741176 0.321569 0.741176 1
0.741176 0.321569 0.741176 1
0.741176 0.321569 0.741176 1
0.741176 0.321569 0.741176 1
0.741176 0.321569 0.741176 1
0.741176 0.321569 0.741176 1
0.741176 0.321569 0.741176 1
0.741176 0.321569 0.741176 1
0.741176 0.321569 0.741176 1
0.741176 0.321569 0.741176 1
0.741176 0.321569 0.741176 1
0.741176 0.321569 0.741176 1
0.741176 0.321569 0.741176 1
0.741176 0.321569 0.741176 1
0.741176 0.321569 0.741176 1
0.741176 0.321569 0.741176 1
0.741176 0.321569 0.741176 1
0.741176 0.321569 0.741176 1
0.741176 0.321569 0.741176 1
0.741176 0.321569 0.741176 1
0.741176 0.321569 0.741176 1
0.741176 0.321569 0.741176 1
0.741176 0.321569 0.741176 1
0.741176 0.321569 0.741176 1
0.741176 0.321569 0.741176 1
0.741176 0.321569 0.741176 1
0.741176 0.321569 0.741176 1
0.741176 0.321569 0.741176 1
0.741176 0.321569 0.741176 1
0.741176 0.321569 0.741176 1
0.741176 0.321569 0.741176 1
0.741176 0.321569 0.741176 1
0.741176 0.321569 0.741176 1
0.741176 0.321569 0.741176 1
0.741176 0.321569 0.741176 1
0.741176 0.321569 0.741176 1
0.741176 0.321569 0.741176 1
0.741176 0.321569 0.741176 1
0.741176 0.321569 0.741176 1
0.741176 0.321569 0.741176 1
0.741176 0.321569 0.741176 1
0.741176 0.321569 0.741176 1
0.741176 0.321569 0.741176 1
0.741176 0.321569 0.741176 1
0.741176 0.321569 0.741176 1
0.741176 0.321569 0.741176 1
0.741176 0.321569 0.741176 1
0.741176 0.321569 0.741176 1
0.741176 0.321569 0.741176 1
0.741176 0.321569 0.741176 1
0.741176 0.321569 0.741176 1
0.741176 0.321569 0.741176 1
0.741176 0.321569 0.741176 1
0.741176 0.321569 0.741176 1
0.741176 0.321569 0.741176 1
0.741176 0.321569 0.741176 1
0.741176 0.321569 0.741176 1
0.741176 0.321569 0.741176 1
0.741176 0.321569 0.741176 1
0.741176 0.321569 0.741176 1
0.741176 0.321569 0.741176 1
0.741176 0.321569 0.741176 1
0.741176 0.321569 0.741176 1
0.741176 0.321569 0.741176 1
0.741176 0.321569 0.741176 1
0.741176 0.321569 0.741176 1
0.741176 0.321569 0.741176 1
0.741176 0.321569 0.741176 1
0.741176 0.321569 0.741176 1
0.741176 0.321569 0.741176 1
0.741176 0.321569 0.741176 1
0.741176 0.321569 0.741176 1
0.741176 0.321569 0.741176 1
0.741176 0.321569 0.741176 1
0.741176 0.321569 0.741176 1
0.741176 0.321569 0.741176 1
0.741176 0.321569 0.741176 1
0.741176 0.321569 0.741176 1
0.741176 0.321569 0.741176 1
0.741176 0.321569 0.741176 1
0.741176 0.321569 0.741176 1
0.741176 0.321569 0.741176 1
0.741176 0.321569 0.741176 1
0.741176 0.321569 0.741176 1
0.741176 0.321569 0.741176 1
0.741176 0.321569 0.741176 1
0.741176 0.321569 0.741176 1
0.741176 0.321569 0.741176 1
0.741176 0.321569 0.741176 1
0.741176 0.321569 0.741176 1
0.741176 0.321569 0.741176 1
0.741176 0.321569 0.741176 1
0.741176 0.321569 0.741176 1
0.741176 0.321569 0.741176 1
0.741176 0.321569 0.741176 1
0.741176 0.321569 0.741176 1
0.741176 0.321569 0.741176 1
0.741176 0.321569 0.741176 1
0.741176 0.321569 0.741176 1
0.741176 0.321569 0.741176 1
0.741176 0.321569 0.741176 1
0.741176 0.321569 0.741176 1
0.741176 0.321569 0.741176 1
0.741176 0.321569 0.741176 1
0.741176 0.321569 0.741176 1
0.741176 0.321569 0.741176 1
0.741176 0.321569 0.741176 1
0.741176 0.321569 0.741176 1
0.741176 0.321569 0.741176 1
0.741176 0.321569 0.741176 1
0.741176 0.321569 0.741176 1
0.741176 0.321569 0.741176 1
0.741176 0.321569 0.741176 1
0.741176 0.321569 0.741176 1
0.741176 0.321569 0.741176 1
0.741176 0.321569 0.741176 1
0.741176 0.321569 0.741176 1
0.741176 0.321569 0.741176 1
0.741176 0.321569 0.741176 1
0.741176 0.321569 0.741176 1
0.741176 0.321569 0.741176 1
0.741176 0.321569 0.741176 1
0.741176 0.321569 0.741176 1
0.741176 0.321569 0.741176 1
0.741176 0.321569 0.741176 1
0.741176 0.321569 0.741176 1
0.741176 0.321569 0.741176 1
0.741176 0.321569 0.741176 1
0.741176 0.321569 0.741176 1
0.741176 0.321569 0.741176 1
0.741176 0.321569 0.741176 1
0.741176 0.321569 0.741176 1
0.741176 0.321569 0.741176 1
0.741176 0.321569 0.741176 1
0.741176 0.321569 0.741176 1
0.741176 0.321569 0.741176 1
0.741176 0.321569 0.741176 1
0.741176 0.321569 0.741176 1
0.741176 0.321569 0.741176 1
0.741176 0.321569 0.741176 1
0.741176 0.321569 0.741176 1
0.741176 0.321569 0.741176 1
0.741176 0.321569 0.741176 1
0.741176 0.321569 0.741176 1
0.741176 0.321569 0.741176 1
0.741176 0.321569 0.741176 1
0.741176 0.321569 0.741176 1
0.741176 0.321569 0.741176 1
0.741176 0.321569 0.741176 1
0.741176 0.321569 0.741176 1
0.741176 0.321569 0.741176 1
0.741176 0.321569 0.741176 1
0.741176 0.321569 0.741176 1
0.741176 0.321569 0.741176 1
0.741176 0.321569 0.741176 1
0.741176 0.321569 0.741176 1
0.741176 0.321569 0.741176 1
0.741176 0.321569 0.741176 1
0.741176 0.321569 0.741176 1
0.741176 0.321569 0.741176 1
0.741176 0.321569 0.741176 1
0.741176 0.321569 0.741176 1
0.741176 0.321569 0.741176 1
0.741176 0.321569 0.741176 1
0.741176 0.321569 0.741176 1
0.741176 0.321569 0.741176 1
0.741176 0.321569 0.741176 1
0.741176 0.321569 0.741176 1
0.741176 0.321569 0.741176 1
0.741176 0.321569 0.741176 1
0.741176 0.321569 0.741176 1
0.741176 0.321569 0.741176 1
0.741176 0.321569 0.741176 1
0.741176 0.321569 0.741176 1
0.741176 0.321569 0.741176 1
0.741176 0.321569 0.741176 1
0.741176 0.321569 0.741176 1
0.741176 0.321569 0.741176 1
0.741176 0.321569 0.741176 1
0.741176 0.321569 0.741176 1
0.741176 0.321569 0.741176 1
0.741176 0.321569 0.741176 1
0.741176 0.321569 0.741176 1