# vtk DataFile Version 3.0
Gocad TSurf to VTK
ASCII
DATASET POLYDATA
POINTS 148 float
21558750.000 4572105.000 117.500
21558525.000 4572037.500 -40.000
21558700.000 4571720.000 65.000
21558550.000 4571675.000 -40.000
21559150.000 4571805.000 100.000
21558500.000 4572400.000 -40.000
21558786.281 4572384.340 155.592
21558000.000 4571887.500 -111.250
21558200.000 4571575.000 -87.500
21557800.000 4572200.000 -135.000
21557800.000 4571850.000 -128.750
21557850.000 4572380.000 -48.750
21558375.000 4572530.000 22.500
21557800.000 4572357.500 -80.000
21557800.000 4572515.000 -25.000
21557725.000 4572330.000 -103.750
21557650.000 4572460.000 -72.500
21557650.000 4572305.000 -117.500
21557000.000 4571960.000 -175.000
21557050.000 4572125.000 -147.500
21557200.000 4571670.000 -158.750
21557125.000 4571657.500 -186.250
21557400.000 4571380.000 -142.500
21557250.000 4571355.000 -197.500
21557800.000 4571500.000 -122.500
21557600.000 4571090.000 -126.250
21557800.000 4571150.000 -116.250
21558400.000 4571262.500 -63.750
21557800.000 4570800.000 -110.000
21557500.000 4570750.000 -220.000
21557375.000 4571052.500 -208.750
21557625.000 4570522.500 -205.000
21557325.000 4570462.500 -336.250
21557850.000 4570560.000 -122.500
21557750.000 4570295.000 -190.000
21557875.000 4570567.500 -106.250
21557950.000 4570335.000 -102.500
21557900.000 4570575.000 -98.750
21557975.000 4570595.000 -88.750
21558000.000 4570350.000 -87.500
21558600.000 4570950.000 -40.000
21558575.000 4570707.500 -36.250
21558150.000 4570390.000 -67.500
21558650.000 4570727.500 -30.000
21558700.000 4570505.000 -20.000
21559325.000 4570855.000 22.500
21559150.000 4570590.000 15.000
21559500.000 4571120.000 30.000
21559325.000 4570855.000 22.500
21558650.000 4571335.000 12.500
21559325.000 4571462.500 65.000
21558575.000 4571312.500 -40.000
21559325.000 4571462.500 65.000
21559150.000 4571805.000 100.000
21559150.000 4571805.000 100.000
21558975.000 4572147.500 135.000
21558975.000 4572147.500 135.000
21558892.547 4572308.875 151.491
21558892.547 4572308.875 151.491
21558975.000 4572147.500 135.000
21558892.547 4572308.875 151.491
21559325.000 4571462.500 65.000
21559150.000 4570590.000 15.000
21558975.000 4570325.000 7.500
21558975.000 4570325.000 7.500
21558800.000 4570060.000 0.000
21558750.000 4570282.500 -10.000
21558525.000 4570222.500 -28.750
21558550.000 4570465.000 -32.500
21558325.000 4570185.000 -46.250
21558100.000 4570125.000 -76.250
21558500.000 4569980.000 -25.000
21558200.000 4569900.000 -65.000
21558750.000 4570002.500 -6.250
21558525.000 4569942.500 -25.000
21558525.000 4569940.000 -25.000
21558700.000 4569945.000 -12.500
21558550.000 4569905.000 -25.000
21558650.000 4569887.500 -18.750
21558575.000 4569867.500 -25.000
21558550.000 4569900.000 -25.000
21558600.000 4569830.000 -25.000
21558575.000 4569860.000 -25.000
21558600.000 4569820.000 -25.000
21558450.000 4569885.000 -60.000
21558425.000 4569837.500 -77.500
21558475.000 4569932.500 -42.500
21558300.000 4569845.000 -80.000
21558250.000 4569872.500 -72.500
21558350.000 4569817.500 -87.500
21558275.000 4569795.000 -46.250
21558400.000 4569790.000 -95.000
21558300.000 4569760.000 -40.000
21558250.000 4569787.500 -53.750
21558225.000 4569780.000 -70.000
21558250.000 4569830.000 -52.500
21558200.000 4569815.000 -67.500
21558225.000 4569865.000 -58.750
21558150.000 4569842.500 -81.250
21558100.000 4569870.000 -95.000
21558150.000 4569800.000 -100.000
21558075.000 4569820.000 -130.000
21558000.000 4569840.000 -160.000
21557950.000 4570080.000 -147.500
21558025.000 4570102.500 -98.750
21557875.000 4570067.500 -175.000
21557775.000 4570047.500 -218.750
21557900.000 4570320.000 -135.000
21557550.000 4570255.000 -277.500
21557675.000 4570030.000 -236.250
21557350.000 4570220.000 -312.500
21557025.000 4570410.000 -388.750
21557100.000 4570670.000 -395.000
21556700.000 4570600.000 -465.000
21556775.000 4570940.000 -392.500
21557075.000 4570992.500 -340.000
21556850.000 4571280.000 -320.000
21557050.000 4571315.000 -285.000
21556925.000 4571620.000 -247.500
21557025.000 4571637.500 -230.000
21557500.000 4572410.000 -100.000
21557100.000 4572290.000 -120.000
21557350.000 4572515.000 -82.500
21557575.000 4572590.000 -41.250
21557150.000 4572455.000 -92.500
21557200.000 4572620.000 -65.000
21557500.000 4572720.000 -10.000
21557800.000 4572672.500 30.000
21557800.000 4572830.000 85.000
21557950.000 4572740.000 123.750
21557900.000 4572560.000 37.500
21557994.547 4572900.383 200.601
21558021.141 4572898.012 199.430
21557986.313 4572913.836 201.441
21558125.000 4572790.000 147.500
21558250.000 4572660.000 85.000
21558125.000 4572790.000 147.500
21558250.000 4572660.000 85.000
21558021.141 4572898.012 199.430
21558184.844 4572807.953 189.389
21558205.156 4572796.777 188.144
21558381.859 4572699.559 177.305
21558397.953 4572690.707 176.318
21558375.000 4572530.000 22.500
21558578.891 4572591.168 165.222
21558592.891 4572583.461 164.363
21558605.172 4572576.707 163.610
21558781.891 4572484.570 157.329

POLYGONS 245 980
3 126 122 123
3 109 108 110
3 92 91 89
3 115 30 117
3 32 111 110
3 33 28 31
3 2 4 0
3 132 129 134
3 80 84 82
3 112 111 32
3 79 82 81
3 116 117 118
3 57 6 0
3 74 75 77
3 38 37 39
3 1 7 8
3 123 120 16
3 28 40 27
3 107 103 104
3 130 12 135
3 70 69 42
3 145 144 143
3 147 146 5
3 129 127 130
3 127 123 14
3 93 94 92
3 99 72 70
3 64 44 66
3 86 84 80
3 85 89 91
3 132 134 136
3 130 135 129
3 34 31 108
3 5 9 7
3 137 135 143
3 103 105 102
3 113 112 114
3 105 107 34
3 10 20 22
3 130 14 11
3 9 18 20
3 90 95 93
3 50 47 52
3 95 97 96
3 29 112 32
3 84 86 87
3 142 141 137
3 93 96 94
3 18 118 119
3 6 5 0
3 114 115 116
3 24 25 26
3 105 106 102
3 35 28 33
3 70 72 69
3 63 64 65
3 41 68 44
3 16 17 15
3 58 56 59
3 4 50 52
3 123 122 120
3 70 104 99
3 88 71 72
3 75 86 80
3 38 28 37
3 0 1 2
3 114 112 115
3 86 71 88
3 30 29 25
3 42 41 38
3 128 127 129
3 137 140 136
3 1 3 2
3 131 128 129
3 117 30 23
3 5 7 1
3 9 20 10
3 96 97 98
3 30 25 22
3 38 39 42
3 93 95 96
3 5 1 0
3 87 90 89
3 136 134 137
3 134 135 137
3 106 109 102
3 138 132 136
3 46 45 43
3 69 68 42
3 24 22 25
3 73 71 74
3 126 123 127
3 85 84 89
3 11 5 12
3 21 23 20
3 39 36 104
3 75 80 77
3 146 145 5
3 2 50 4
3 3 51 49
3 41 40 38
3 57 0 55
3 10 22 24
3 108 31 32
3 121 120 122
3 14 16 13
3 56 55 53
3 46 43 44
3 23 22 20
3 84 85 82
3 85 91 83
3 112 113 111
3 77 80 79
3 16 15 13
3 40 43 45
3 125 124 122
3 62 48 45
3 112 29 115
3 119 23 21
3 64 66 65
3 64 46 44
3 139 138 136
3 87 86 88
3 67 68 69
3 17 9 15
3 121 19 120
3 98 99 101
3 26 28 27
3 78 77 79
3 55 4 53
3 29 28 25
3 27 40 51
3 39 104 70
3 103 107 105
3 19 18 17
3 18 119 21
3 103 102 99
3 67 71 65
3 9 5 11
3 15 9 13
3 89 90 92
3 144 142 143
3 68 41 42
3 16 120 17
3 58 59 60
3 123 16 14
3 140 139 136
3 129 135 134
3 67 69 71
3 18 9 17
3 88 95 87
3 107 33 34
3 128 126 127
3 53 4 52
3 3 27 51
3 143 142 137
3 105 34 106
3 127 14 130
3 104 103 99
3 19 17 120
3 38 40 28
3 49 47 50
3 62 45 46
3 49 50 2
3 82 83 81
3 78 79 81
3 75 71 86
3 126 125 122
3 25 28 26
3 58 57 56
3 117 23 119
3 48 47 45
3 72 71 69
3 52 61 54
3 35 33 36
3 9 10 7
3 108 32 110
3 24 8 7
3 37 35 36
3 73 65 71
3 78 76 77
3 33 107 36
3 135 12 143
3 47 40 45
3 23 30 22
3 118 117 119
3 5 145 143
3 53 52 54
3 13 9 11
3 52 47 61
3 10 24 7
3 37 28 35
3 0 4 55
3 44 68 66
3 56 53 59
3 141 140 137
3 74 71 75
3 3 8 27
3 12 5 143
3 68 67 66
3 2 3 49
3 115 29 30
3 14 13 11
3 11 12 130
3 37 36 39
3 89 84 87
3 76 73 74
3 132 131 129
3 63 46 64
3 24 26 8
3 100 98 101
3 26 27 8
3 80 82 79
3 88 97 95
3 57 55 56
3 43 41 44
3 51 40 49
3 131 133 128
3 90 93 92
3 94 96 100
3 87 95 90
3 124 121 122
3 76 74 77
3 82 85 83
3 42 39 70
3 1 8 3
3 6 147 5
3 29 32 31
3 53 54 59
3 97 72 98
3 28 29 31
3 63 62 46
3 98 72 99
3 116 115 117
3 18 21 20
3 36 107 104
3 40 47 49
3 106 34 108
3 34 33 31
3 43 40 41
3 88 72 97
3 96 98 100
3 66 67 65
3 106 108 109
3 101 99 102

POINT_DATA 148
COLOR_SCALARS GocadColor 4
0.77647 0.65098 0.274509 1
0.77647 0.65098 0.274509 1
0.77647 0.65098 0.274509 1
0.77647 0.65098 0.274509 1
0.77647 0.65098 0.274509 1
0.77647 0.65098 0.274509 1
0.77647 0.65098 0.274509 1
0.77647 0.65098 0.274509 1
0.77647 0.65098 0.274509 1
0.77647 0.65098 0.274509 1
0.77647 0.65098 0.274509 1
0.77647 0.65098 0.274509 1
0.77647 0.65098 0.274509 1
0.77647 0.65098 0.274509 1
0.77647 0.65098 0.274509 1
0.77647 0.65098 0.274509 1
0.77647 0.65098 0.274509 1
0.77647 0.65098 0.274509 1
0.77647 0.65098 0.274509 1
0.77647 0.65098 0.274509 1
0.77647 0.65098 0.274509 1
0.77647 0.65098 0.274509 1
0.77647 0.65098 0.274509 1
0.77647 0.65098 0.274509 1
0.77647 0.65098 0.274509 1
0.77647 0.65098 0.274509 1
0.77647 0.65098 0.274509 1
0.77647 0.65098 0.274509 1
0.77647 0.65098 0.274509 1
0.77647 0.65098 0.274509 1
0.77647 0.65098 0.274509 1
0.77647 0.65098 0.274509 1
0.77647 0.65098 0.274509 1
0.77647 0.65098 0.274509 1
0.77647 0.65098 0.274509 1
0.77647 0.65098 0.274509 1
0.77647 0.65098 0.274509 1
0.77647 0.65098 0.274509 1
0.77647 0.65098 0.274509 1
0.77647 0.65098 0.274509 1
0.77647 0.65098 0.274509 1
0.77647 0.65098 0.274509 1
0.77647 0.65098 0.274509 1
0.77647 0.65098 0.274509 1
0.77647 0.65098 0.274509 1
0.77647 0.65098 0.274509 1
0.77647 0.65098 0.274509 1
0.77647 0.65098 0.274509 1
0.77647 0.65098 0.274509 1
0.77647 0.65098 0.274509 1
0.77647 0.65098 0.274509 1
0.77647 0.65098 0.274509 1
0.77647 0.65098 0.274509 1
0.77647 0.65098 0.274509 1
0.77647 0.65098 0.274509 1
0.77647 0.65098 0.274509 1
0.77647 0.65098 0.274509 1
0.77647 0.65098 0.274509 1
0.77647 0.65098 0.274509 1
0.77647 0.65098 0.274509 1
0.77647 0.65098 0.274509 1
0.77647 0.65098 0.274509 1
0.77647 0.65098 0.274509 1
0.77647 0.65098 0.274509 1
0.77647 0.65098 0.274509 1
0.77647 0.65098 0.274509 1
0.77647 0.65098 0.274509 1
0.77647 0.65098 0.274509 1
0.77647 0.65098 0.274509 1
0.77647 0.65098 0.274509 1
0.77647 0.65098 0.274509 1
0.77647 0.65098 0.274509 1
0.77647 0.65098 0.274509 1
0.77647 0.65098 0.274509 1
0.77647 0.65098 0.274509 1
0.77647 0.65098 0.274509 1
0.77647 0.65098 0.274509 1
0.77647 0.65098 0.274509 1
0.77647 0.65098 0.274509 1
0.77647 0.65098 0.274509 1
0.77647 0.65098 0.274509 1
0.77647 0.65098 0.274509 1
0.77647 0.65098 0.274509 1
0.77647 0.65098 0.274509 1
0.77647 0.65098 0.274509 1
0.77647 0.65098 0.274509 1
0.77647 0.65098 0.274509 1
0.77647 0.65098 0.274509 1
0.77647 0.65098 0.274509 1
0.77647 0.65098 0.274509 1
0.77647 0.65098 0.274509 1
0.77647 0.65098 0.274509 1
0.77647 0.65098 0.274509 1
0.77647 0.65098 0.274509 1
0.77647 0.65098 0.274509 1
0.77647 0.65098 0.274509 1
0.77647 0.65098 0.274509 1
0.77647 0.65098 0.274509 1
0.77647 0.65098 0.274509 1
0.77647 0.65098 0.274509 1
0.77647 0.65098 0.274509 1
0.77647 0.65098 0.274509 1
0.77647 0.65098 0.274509 1
0.77647 0.65098 0.274509 1
0.77647 0.65098 0.274509 1
0.77647 0.65098 0.274509 1
0.77647 0.65098 0.274509 1
0.77647 0.65098 0.274509 1
0.77647 0.65098 0.274509 1
0.77647 0.65098 0.274509 1
0.77647 0.65098 0.274509 1
0.77647 0.65098 0.274509 1
0.77647 0.65098 0.274509 1
0.77647 0.65098 0.274509 1
0.77647 0.65098 0.274509 1
0.77647 0.65098 0.274509 1
0.77647 0.65098 0.274509 1
0.77647 0.65098 0.274509 1
0.77647 0.65098 0.274509 1
0.77647 0.65098 0.274509 1
0.77647 0.65098 0.274509 1
0.77647 0.65098 0.274509 1
0.77647 0.65098 0.274509 1
0.77647 0.65098 0.274509 1
0.77647 0.65098 0.274509 1
0.77647 0.65098 0.274509 1
0.77647 0.65098 0.274509 1
0.77647 0.65098 0.274509 1
0.77647 0.65098 0.274509 1
0.77647 0.65098 0.274509 1
0.77647 0.65098 0.274509 1
0.77647 0.65098 0.274509 1
0.77647 0.65098 0.274509 1
0.77647 0.65098 0.274509 1
0.77647 0.65098 0.274509 1
0.77647 0.65098 0.274509 1
0.77647 0.65098 0.274509 1
0.77647 0.65098 0.274509 1
0.77647 0.65098 0.274509 1
0.77647 0.65098 0.274509 1
0.77647 0.65098 0.274509 1
0.77647 0.65098 0.274509 1
0.77647 0.65098 0.274509 1
0.77647 0.65098 0.274509 1
0.77647 0.65098 0.274509 1
0.77647 0.65098 0.274509 1
0.77647 0.65098 0.274509 1
0.77647 0.65098 0.274509 1

