# vtk DataFile Version 3.0
Gocad TSurf to VTK
ASCII
DATASET POLYDATA
POINTS 475 float
21569250.000 4545340.000 90.000
21569225.000 4545200.000 72.500
21569125.000 4545210.000 128.750
21569200.000 4545060.000 55.000
21569275.000 4545480.000 107.500
21569300.000 4545190.000 2.500
21569400.000 4545320.000 -50.000
21569500.000 4545450.000 -102.500
21569300.000 4545620.000 125.000
21569600.000 4545580.000 -155.000
21568825.000 4545535.000 373.750
21569000.000 4545860.000 237.500
21568750.000 4545910.000 300.000
21569150.000 4545950.000 125.000
21569400.000 4545805.000 35.000
21569100.000 4546060.000 125.000
21568675.000 4546035.000 275.000
21569500.000 4545990.000 -55.000
21569450.000 4546137.500 46.250
21569525.000 4545887.500 -80.000
21569575.000 4545682.500 -130.000
21569825.000 4545820.000 -312.500
21569900.000 4545900.000 -365.000
21569750.000 4545740.000 -260.000
21569675.000 4545660.000 -207.500
21569925.000 4546037.500 -263.750
21569625.000 4546105.000 -31.250
21570000.000 4546022.500 -340.000
21570100.000 4546145.000 -315.000
21570200.000 4546267.500 -290.000
21569875.000 4546335.000 16.250
21570300.000 4546390.000 -265.000
21570300.000 4546545.000 -156.250
21570075.000 4546590.000 72.500
21570400.000 4546530.000 -220.000
21570500.000 4546670.000 -175.000
21570300.000 4546700.000 -47.500
21570600.000 4546810.000 -130.000
21570300.000 4546855.000 61.250
21569850.000 4546930.000 291.250
21570700.000 4546950.000 -85.000
21570500.000 4547250.000 92.500
21570325.000 4547142.500 190.000
21570700.000 4547085.000 -60.000
21570700.000 4547220.000 -35.000
21570600.000 4547370.000 53.750
21570400.000 4547540.000 250.000
21570700.000 4547355.000 -10.000
21570700.000 4547490.000 15.000
21570450.000 4547630.000 42.500
21570225.000 4547667.500 218.750
21570025.000 4547457.500 367.500
21570200.000 4547770.000 70.000
21570050.000 4547795.000 187.500
21570000.000 4547697.500 305.000
21569950.000 4547910.000 97.500
21569900.000 4547815.000 245.000
21569800.000 4547932.500 185.000
21569700.000 4548050.000 125.000
21569750.000 4547845.000 285.000
21569725.000 4547947.500 205.000
21569775.000 4547742.500 365.000
21569550.000 4547870.000 315.000
21569800.000 4547640.000 445.000
21569475.000 4547780.000 410.000
21569800.000 4547502.500 427.500
21569950.000 4547335.000 370.000
21569500.000 4547540.000 472.500
21569700.000 4547240.000 407.500
21569400.000 4547690.000 505.000
21569250.000 4547445.000 537.500
21568875.000 4547650.000 581.250
21569025.000 4547350.000 573.750
21568800.000 4547800.000 585.000
21569000.000 4547985.000 467.500
21568600.000 4547555.000 655.000
21568700.000 4547677.500 620.000
21568567.172 4547514.777 666.492
21568556.672 4547449.535 675.038
21568574.969 4547420.719 673.400
21568635.672 4547325.082 667.967
21568672.422 4547267.191 664.678
21569100.000 4547200.000 570.000
21568658.266 4547253.680 663.067
21569800.000 4547090.000 375.000
21569550.000 4546835.000 362.500
21569800.000 4547227.500 392.500
21569800.000 4547365.000 410.000
21570200.000 4547295.000 267.500
21569775.000 4546945.000 333.750
21569750.000 4546800.000 292.500
21569725.000 4546655.000 251.250
21569425.000 4546707.500 356.250
21569650.000 4546380.000 143.750
21569200.000 4546890.000 460.000
21569150.000 4547045.000 515.000
21568950.000 4546802.500 476.250
21569000.000 4546365.000 285.000
21569000.000 4546935.000 507.500
21568775.000 4546830.000 515.000
21569050.000 4547067.500 538.750
21568549.203 4547152.105 651.423
21568543.766 4547147.051 650.843
21568534.234 4547138.172 649.826
21568326.594 4547054.375 636.217
21568292.781 4547026.746 628.804
21568188.063 4546935.648 605.976
21568450.000 4546475.000 405.000
21568106.281 4546871.297 587.984
21568675.000 4546287.500 298.750
21568225.000 4546377.500 385.000
21569050.000 4546212.500 205.000
21568600.000 4546160.000 250.000
21569200.000 4546320.000 237.500
21569250.000 4546450.000 293.750
21569150.000 4546190.000 181.250
21569400.000 4546285.000 147.500
21568550.000 4545935.000 347.500
21568125.000 4546137.500 385.000
21568250.000 4545995.000 405.000
21568000.000 4546280.000 365.000
21568000.000 4546152.500 402.500
21568000.000 4546025.000 440.000
21567650.000 4546235.000 455.000
21567800.000 4546080.000 475.000
21567500.000 4546390.000 435.000
21567600.000 4546505.000 476.250
21567650.000 4546235.000 455.000
21567975.000 4546422.500 423.750
21567673.688 4546589.738 506.645
21567925.000 4546715.000 541.250
21567866.750 4546690.406 535.102
21567934.953 4546739.887 550.209
21567922.359 4546729.258 547.455
21567734.422 4546595.281 505.766
21567732.688 4546594.102 505.379
21567673.688 4546589.738 506.645
21567950.000 4545925.000 495.000
21567950.000 4545925.000 495.000
21568100.000 4545770.000 515.000
21568075.000 4545897.500 477.500
21568525.000 4545822.500 396.250
21568750.000 4545410.000 397.500
21568300.000 4545485.000 542.500
21568600.000 4545160.000 445.000
21568575.000 4545297.500 445.000
21568725.000 4545070.000 341.250
21569175.000 4544995.000 48.750
21568575.000 4545070.000 421.250
21568550.000 4544980.000 397.500
21568425.000 4545100.000 507.500
21568475.000 4544900.000 402.500
21568400.000 4545200.000 560.000
21568300.000 4545097.500 583.750
21568271.219 4545188.539 593.454
21568255.469 4545133.676 596.272
21568277.094 4545224.582 592.774
21568218.734 4545356.344 588.323
21568214.547 4545365.777 588.005
21568212.578 4545369.984 587.897
21568425.000 4545327.500 531.250
21568207.453 4545380.883 587.617
21568172.984 4545410.996 587.536
21568100.000 4545515.000 577.500
21568091.844 4545473.398 587.696
21568100.000 4545642.500 546.250
21568100.000 4545474.762 587.362
21568231.516 4545050.180 600.561
21568222.203 4545017.758 602.227
21568500.000 4544800.000 350.000
21568213.875 4545005.965 603.001
21568525.000 4544890.000 373.750
21568975.000 4544890.000 133.750
21569150.000 4544930.000 42.500
21569125.000 4544865.000 36.250
21569125.000 4544865.000 36.250
21569100.000 4544800.000 30.000
21568725.000 4544590.000 153.750
21569175.000 4544732.500 -127.500
21568525.000 4544730.000 311.250
21568575.000 4544590.000 233.750
21568350.000 4544590.000 362.500
21568089.344 4544674.715 555.823
21568082.391 4544658.344 553.864
21568100.078 4544700.020 558.851
21568139.422 4544792.789 569.952
21568141.469 4544797.805 570.546
21568275.000 4544485.000 368.750
21567964.250 4544505.715 531.375
21568600.000 4544520.000 195.000
21568200.000 4544235.000 351.250
21568550.000 4544285.000 182.500
21567900.000 4544122.500 426.250
21567856.125 4544339.715 508.528
21568000.000 4544015.000 377.500
21568200.000 4544090.000 327.500
21567900.000 4543975.000 392.500
21567750.000 4544062.500 448.750
21568050.000 4543887.500 336.250
21567675.000 4543647.500 388.750
21567700.000 4543480.000 350.000
21567650.000 4543815.000 427.500
21567500.219 4543672.746 428.560
21567631.422 4543939.430 456.286
21567597.219 4543857.227 446.501
21567649.672 4543998.285 462.797
21567681.875 4544102.238 474.296
21567824.641 4544292.016 501.930
21567596.906 4543856.457 446.410
21567533.813 4543736.574 434.762
21567383.344 4543450.629 406.979
21567380.703 4543445.613 406.491
21567366.703 4543419.023 403.908
21567300.000 4543210.000 375.000
21567525.000 4543112.500 392.500
21567825.000 4543315.000 373.750
21568200.000 4543945.000 303.750
21567689.063 4543041.406 405.260
21567752.328 4543024.309 408.875
21567955.406 4542969.430 420.478
21568024.328 4542950.801 424.417
21568075.000 4542985.000 421.250
21568350.000 4543312.500 310.000
21568120.625 4542924.781 429.918
21568525.000 4542995.000 368.750
21568219.328 4542861.336 433.398
21568246.297 4542844.926 434.140
21568407.797 4542801.605 442.006
21568650.000 4542840.000 417.500
21568800.000 4543020.000 320.000
21568479.031 4542782.492 445.476
21568596.109 4542751.090 451.178
21568685.656 4542727.068 455.540
21568741.969 4542696.943 457.347
21569050.000 4543042.500 251.250
21568900.000 4543135.000 237.500
21568776.953 4542672.838 458.135
21568928.344 4542626.822 465.172
21569325.000 4542710.000 397.500
21569125.000 4543130.000 175.000
21569056.719 4542596.373 471.673
21569199.969 4542559.955 478.775
21569310.516 4542531.848 484.255
21569450.000 4542530.000 475.000
21569550.000 4542755.000 327.500
21569338.281 4542523.830 486.094
21569379.594 4542511.896 488.830
21569424.188 4542499.018 491.782
21569483.391 4542481.916 495.703
21569900.000 4542560.000 390.000
21569665.563 4542408.521 507.216
21569694.813 4542396.738 509.065
21569802.203 4542369.297 507.356
21569924.063 4542263.578 501.496
21570125.000 4542347.500 386.250
21570100.000 4542850.000 110.000
21570006.656 4542191.920 497.523
21570328.828 4542155.000 382.853
21570450.000 4542275.000 355.000
21570034.250 4542167.988 496.197
21570048.766 4542155.000 495.656
21570350.000 4542700.000 131.250
21570364.281 4542155.000 378.571
21570470.000 4542155.000 377.333
21570681.578 4542155.000 340.263
21570850.000 4542400.000 173.750
21570600.000 4542550.000 152.500
21570735.516 4542155.000 323.727
21570939.641 4542155.000 261.143
21571174.703 4542155.000 253.029
21571225.000 4542202.500 233.750
21571050.000 4542935.000 -228.750
21571245.078 4542155.000 260.845
21571350.000 4542155.000 272.500
21571400.000 4542350.000 175.000
21571325.000 4542577.500 16.250
21571460.313 4542155.000 284.562
21571487.172 4542155.000 287.500
21571550.000 4542400.000 165.000
21571586.031 4542155.000 298.309
21571624.359 4542155.000 302.500
21571700.000 4542450.000 155.000
21571720.906 4542155.000 337.909
21571950.000 4542335.000 315.000
21571800.000 4542495.000 161.250
21571921.875 4542155.000 396.563
21572027.266 4542155.000 446.212
21572050.000 4542180.000 443.750
21572200.000 4542220.000 475.000
21572050.000 4542155.000 453.250
21572157.141 4542155.000 486.429
21572200.000 4542155.000 499.700
21572239.797 4542155.000 499.541
21572369.563 4542155.000 499.022
21572575.000 4542377.500 370.000
21572400.000 4542530.000 257.500
21572513.766 4542155.000 490.436
21572617.516 4542155.000 479.124
21572704.188 4542155.000 479.097
21573014.125 4542155.000 446.641
[...]
POINT_DATA 475
COLOR_SCALARS GocadColor 4
1 0.498039 0.313726 1
1 0.498039 0.313726 1
1 0.498039 0.313726 1
1 0.498039 0.313726 1
1 0.498039 0.313726 1
1 0.498039 0.313726 1
1 0.498039 0.313726 1
1 0.498039 0.313726 1
1 0.498039 0.313726 1
1 0.498039 0.313726 1
1 0.498039 0.313726 1
1 0.498039 0.313726 1
1 0.498039 0.313726 1
1 0.498039 0.313726 1
1 0.498039 0.313726 1
1 0.498039 0.313726 1
1 0.498039 0.313726 1
1 0.498039 0.313726 1
1 0.498039 0.313726 1
1 0.498039 0.313726 1
1 0.498039 0.313726 1
1 0.498039 0.313726 1
1 0.498039 0.313726 1
1 0.498039 0.313726 1
1 0.498039 0.313726 1
1 0.498039 0.313726 1
1 0.498039 0.313726 1
1 0.498039 0.313726 1
1 0.498039 0.313726 1
1 0.498039 0.313726 1
1 0.498039 0.313726 1
1 0.498039 0.313726 1
1 0.498039 0.313726 1
1 0.498039 0.313726 1
1 0.498039 0.313726 1
1 0.498039 0.313726 1
1 0.498039 0.313726 1
1 0.498039 0.313726 1
1 0.498039 0.313726 1
1 0.498039 0.313726 1
1 0.498039 0.313726 1
1 0.498039 0.313726 1
1 0.498039 0.313726 1
1 0.498039 0.313726 1
1 0.498039 0.313726 1
1 0.498039 0.313726 1
1 0.498039 0.313726 1
1 0.498039 0.313726 1
1 0.498039 0.313726 1
1 0.498039 0.313726 1
1 0.498039 0.313726 1
1 0.498039 0.313726 1
1 0.498039 0.313726 1
1 0.498039 0.313726 1
1 0.498039 0.313726 1
1 0.498039 0.313726 1
1 0.498039 0.313726 1
1 0.498039 0.313726 1
1 0.498039 0.313726 1
1 0.498039 0.313726 1
1 0.498039 0.313726 1
1 0.498039 0.313726 1
1 0.498039 0.313726 1
1 0.498039 0.313726 1
1 0.498039 0.313726 1
1 0.498039 0.313726 1
1 0.498039 0.313726 1
1 0.498039 0.313726 1
1 0.498039 0.313726 1
1 0.498039 0.313726 1
1 0.498039 0.313726 1
1 0.498039 0.313726 1
1 0.498039 0.313726 1
1 0.498039 0.313726 1
1 0.498039 0.313726 1
1 0.498039 0.313726 1
1 0.498039 0.313726 1
1 0.498039 0.313726 1
1 0.498039 0.313726 1
1 0.498039 0.313726 1
1 0.498039 0.313726 1
1 0.498039 0.313726 1
1 0.498039 0.313726 1
1 0.498039 0.313726 1
1 0.498039 0.313726 1
1 0.498039 0.313726 1
1 0.498039 0.313726 1
1 0.498039 0.313726 1
1 0.498039 0.313726 1
1 0.498039 0.313726 1
1 0.498039 0.313726 1
1 0.498039 0.313726 1
1 0.498039 0.313726 1
1 0.498039 0.313726 1
1 0.498039 0.313726 1
1 0.498039 0.313726 1
1 0.498039 0.313726 1
1 0.498039 0.313726 1
1 0.498039 0.313726 1
1 0.498039 0.313726 1
1 0.498039 0.313726 1
1 0.498039 0.313726 1
1 0.498039 0.313726 1
1 0.498039 0.313726 1
1 0.498039 0.313726 1
1 0.498039 0.313726 1
1 0.498039 0.313726 1
1 0.498039 0.313726 1
1 0.498039 0.313726 1
1 0.498039 0.313726 1
1 0.498039 0.313726 1
1 0.498039 0.313726 1
1 0.498039 0.313726 1
1 0.498039 0.313726 1
1 0.498039 0.313726 1
1 0.498039 0.313726 1
1 0.498039 0.313726 1
1 0.498039 0.313726 1
1 0.498039 0.313726 1
1 0.498039 0.313726 1
1 0.498039 0.313726 1
1 0.498039 0.313726 1
1 0.498039 0.313726 1
1 0.498039 0.313726 1
1 0.498039 0.313726 1
1 0.498039 0.313726 1
1 0.498039 0.313726 1
1 0.498039 0.313726 1
1 0.498039 0.313726 1
1 0.498039 0.313726 1
1 0.498039 0.313726 1
1 0.498039 0.313726 1
1 0.498039 0.313726 1
1 0.498039 0.313726 1
1 0.498039 0.313726 1
1 0.498039 0.313726 1
1 0.498039 0.313726 1
1 0.498039 0.313726 1
1 0.498039 0.313726 1
1 0.498039 0.313726 1
1 0.498039 0.313726 1
1 0.498039 0.313726 1
1 0.498039 0.313726 1
1 0.498039 0.313726 1
1 0.498039 0.313726 1
1 0.498039 0.313726 1
1 0.498039 0.313726 1
1 0.498039 0.313726 1
1 0.498039 0.313726 1
1 0.498039 0.313726 1
1 0.498039 0.313726 1
1 0.498039 0.313726 1
1 0.498039 0.313726 1
1 0.498039 0.313726 1
1 0.498039 0.313726 1
1 0.498039 0.313726 1
1 0.498039 0.313726 1
1 0.498039 0.313726 1
1 0.498039 0.313726 1
1 0.498039 0.313726 1
1 0.498039 0.313726 1
1 0.498039 0.313726 1
1 0.498039 0.313726 1
1 0.498039 0.313726 1
1 0.498039 0.313726 1
1 0.498039 0.313726 1
1 0.498039 0.313726 1
1 0.498039 0.313726 1
1 0.498039 0.313726 1
1 0.498039 0.313726 1
1 0.498039 0.313726 1
1 0.498039 0.313726 1
1 0.498039 0.313726 1
1 0.498039 0.313726 1
1 0.498039 0.313726 1
1 0.498039 0.313726 1
1 0.498039 0.313726 1
1 0.498039 0.313726 1
1 0.498039 0.313726 1
1 0.498039 0.313726 1
1 0.498039 0.313726 1
1 0.498039 0.313726 1
1 0.498039 0.313726 1
1 0.498039 0.313726 1
1 0.498039 0.313726 1
1 0.498039 0.313726 1
1 0.498039 0.313726 1
1 0.498039 0.313726 1
1 0.498039 0.313726 1
1 0.498039 0.313726 1
1 0.498039 0.313726 1
1 0.498039 0.313726 1
1 0.498039 0.313726 1
1 0.498039 0.313726 1
1 0.498039 0.313726 1
1 0.498039 0.313726 1
1 0.498039 0.313726 1
1 0.498039 0.313726 1
1 0.498039 0.313726 1
1 0.498039 0.313726 1
1 0.498039 0.313726 1
1 0.498039 0.313726 1
1 0.498039 0.313726 1
1 0.498039 0.313726 1
1 0.498039 0.313726 1
1 0.498039 0.313726 1
1 0.498039 0.313726 1
1 0.498039 0.313726 1
1 0.498039 0.313726 1
1 0.498039 0.313726 1
1 0.498039 0.313726 1
1 0.498039 0.313726 1
1 0.498039 0.313726 1
1 0.498039 0.313726 1
1 0.498039 0.313726 1
1 0.498039 0.313726 1
1 0.498039 0.313726 1
1 0.498039 0.313726 1
1 0.498039 0.313726 1
1 0.498039 0.313726 1
1 0.498039 0.313726 1
1 0.498039 0.313726 1
1 0.498039 0.313726 1
1 0.498039 0.313726 1
1 0.498039 0.313726 1
1 0.498039 0.313726 1
1 0.498039 0.313726 1
1 0.498039 0.313726 1
1 0.498039 0.313726 1
1 0.498039 0.313726 1
1 0.498039 0.313726 1
1 0.498039 0.313726 1
1 0.498039 0.313726 1
1 0.498039 0.313726 1
1 0.498039 0.313726 1
1 0.498039 0.313726 1
1 0.498039 0.313726 1
1 0.498039 0.313726 1
1 0.498039 0.313726 1
1 0.498039 0.313726 1
1 0.498039 0.313726 1
1 0.498039 0.313726 1
1 0.498039 0.313726 1
1 0.498039 0.313726 1
1 0.498039 0.313726 1
1 0.498039 0.313726 1
1 0.498039 0.313726 1
1 0.498039 0.313726 1
1 0.498039 0.313726 1
1 0.498039 0.313726 1
1 0.498039 0.313726 1
1 0.498039 0.313726 1
1 0.498039 0.313726 1
1 0.498039 0.313726 1
1 0.498039 0.313726 1
1 0.498039 0.313726 1
1 0.498039 0.313726 1
1 0.498039 0.313726 1
1 0.498039 0.313726 1
1 0.498039 0.313726 1
1 0.498039 0.313726 1
1 0.498039 0.313726 1
1 0.498039 0.313726 1
1 0.498039 0.313726 1
1 0.498039 0.313726 1
1 0.498039 0.313726 1
1 0.498039 0.313726 1
1 0.498039 0.313726 1
1 0.498039 0.313726 1
1 0.498039 0.313726 1
1 0.498039 0.313726 1
1 0.498039 0.313726 1
1 0.498039 0.313726 1
1 0.498039 0.313726 1
1 0.498039 0.313726 1
1 0.498039 0.313726 1
1 0.498039 0.313726 1
1 0.498039 0.313726 1
1 0.498039 0.313726 1
1 0.498039 0.313726 1
1 0.498039 0.313726 1
1 0.498039 0.313726 1
1 0.498039 0.313726 1
1 0.498039 0.313726 1
1 0.498039 0.313726 1
1 0.498039 0.313726 1
1 0.498039 0.313726 1
1 0.498039 0.313726 1
1 0.498039 0.313726 1
1 0.498039 0.313726 1
1 0.498039 0.313726 1
1 0.498039 0.313726 1
1 0.498039 0.313726 1
1 0.498039 0.313726 1
1 0.498039 0.313726 1
1 0.498039 0.313726 1
1 0.498039 0.313726 1
1 0.498039 0.313726 1
1 0.498039 0.313726 1
1 0.498039 0.313726 1
1 0.498039 0.313726 1
1 0.498039 0.313726 1
1 0.498039 0.313726 1
1 0.498039 0.313726 1
1 0.498039 0.313726 1
1 0.498039 0.313726 1
1 0.498039 0.313726 1
1 0.498039 0.313726 1
1 0.498039 0.313726 1
1 0.498039 0.313726 1
1 0.498039 0.313726 1
1 0.498039 0.313726 1
1 0.498039 0.313726 1
1 0.498039 0.313726 1
1 0.498039 0.313726 1
1 0.498039 0.313726 1
1 0.498039 0.313726 1
1 0.498039 0.313726 1
1 0.498039 0.313726 1
1 0.498039 0.313726 1
1 0.498039 0.313726 1
1 0.498039 0.313726 1
1 0.498039 0.313726 1
1 0.498039 0.313726 1
1 0.498039 0.313726 1
1 0.498039 0.313726 1
1 0.498039 0.313726 1
1 0.498039 0.313726 1
1 0.498039 0.313726 1
1 0.498039 0.313726 1
1 0.498039 0.313726 1
1 0.498039 0.313726 1
1 0.498039 0.313726 1
1 0.498039 0.313726 1
1 0.498039 0.313726 1
1 0.498039 0.313726 1
1 0.498039 0.313726 1
1 0.498039 0.313726 1
1 0.498039 0.313726 1
1 0.498039 0.313726 1
1 0.498039 0.313726 1
1 0.498039 0.313726 1
1 0.498039 0.313726 1
1 0.498039 0.313726 1
1 0.498039 0.313726 1
1 0.498039 0.313726 1
1 0.498039 0.313726 1
1 0.498039 0.313726 1
1 0.498039 0.313726 1
1 0.498039 0.313726 1
1 0.498039 0.313726 1
1 0.498039 0.313726 1
1 0.498039 0.313726 1
1 0.498039 0.313726 1
1 0.498039 0.313726 1
1 0.498039 0.313726 1
1 0.498039 0.313726 1
1 0.498039 0.313726 1
1 0.498039 0.313726 1
1 0.498039 0.313726 1
1 0.498039 0.313726 1
1 0.498039 0.313726 1
1 0.498039 0.313726 1
1 0.498039 0.313726 1
1 0.498039 0.313726 1
1 0.498039 0.313726 1
1 0.498039 0.313726 1
1 0.498039 0.313726 1
1 0.498039 0.313726 1
1 0.498039 0.313726 1
1 0.498039 0.313726 1
1 0.498039 0.313726 1
1 0.498039 0.313726 1
1 0.498039 0.313726 1
1 0.498039 0.313726 1
1 0.498039 0.313726 1
1 0.498039 0.313726 1
1 0.498039 0.313726 1
1 0.498039 0.313726 1
1 0.498039 0.313726 1
1 0.498039 0.313726 1
1 0.498039 0.313726 1
1 0.498039 0.313726 1
1 0.498039 0.313726 1
1 0.498039 0.313726 1
1 0.498039 0.313726 1
1 0.498039 0.313726 1
1 0.498039 0.313726 1
1 0.498039 0.313726 1
1 0.498039 0.313726 1
1 0.498039 0.313726 1
1 0.498039 0.313726 1
1 0.498039 0.313726 1
1 0.498039 0.313726 1
1 0.498039 0.313726 1
1 0.498039 0.313726 1
1 0.498039 0.313726 1
1 0.498039 0.313726 1
1 0.498039 0.313726 1
1 0.498039 0.313726 1
1 0.498039 0.313726 1
1 0.498039 0.313726 1
1 0.498039 0.313726 1
1 0.498039 0.313726 1
1 0.498039 0.313726 1
1 0.498039 0.313726 1
1 0.498039 0.313726 1
1 0.498039 0.313726 1
1 0.498039 0.313726 1
1 0.498039 0.313726 1
1 0.498039 0.313726 1
1 0.498039 0.313726 1
1 0.498039 0.313726 1
1 0.498039 0.313726 1
1 0.498039 0.313726 1
1 0.498039 0.313726 1
1 0.498039 0.313726 1
1 0.498039 0.313726 1
1 0.498039 0.313726 1
1 0.498039 0.313726 1
1 0.498039 0.313726 1
1 0.498039 0.313726 1
1 0.498039 0.313726 1
1 0.498039 0.313726 1
1 0.498039 0.313726 1
1 0.498039 0.313726 1
1 0.498039 0.313726 1
1 0.498039 0.313726 1
1 0.498039 0.313726 1
1 0.498039 0.313726 1
1 0.498039 0.313726 1
1 0.498039 0.313726 1
1 0.498039 0.313726 1
1 0.498039 0.313726 1
1 0.498039 0.313726 1
1 0.498039 0.313726 1
1 0.498039 0.313726 1
1 0.498039 0.313726 1
1 0.498039 0.313726 1
1 0.498039 0.313726 1
1 0.498039 0.313726 1
1 0.498039 0.313726 1
1 0.498039 0.313726 1
1 0.498039 0.313726 1
1 0.498039 0.313726 1
1 0.498039 0.313726 1
1 0.498039 0.313726 1
1 0.498039 0.313726 1
1 0.498039 0.313726 1
1 0.498039 0.313726 1
1 0.498039 0.313726 1
1 0.498039 0.313726 1
1 0.498039 0.313726 1
1 0.498039 0.313726 1
1 0.498039 0.313726 1
1 0.498039 0.313726 1
1 0.498039 0.313726 1
1 0.498039 0.313726 1
1 0.498039 0.313726 1
1 0.498039 0.313726 1
1 0.498039 0.313726 1
1 0.498039 0.313726 1
1 0.498039 0.313726 1
1 0.498039 0.313726 1
1 0.498039 0.313726 1
1 0.498039 0.313726 1
1 0.498039 0.313726 1
1 0.498039 0.313726 1
1 0.498039 0.313726 1
1 0.498039 0.313726 1
1 0.498039 0.313726 1
1 0.498039 0.313726 1
1 0.498039 0.313726 1
1 0.498039 0.313726 1
1 0.498039 0.313726 1

