# vtk DataFile Version 3.0
Gocad TSurf to VTK
ASCII
DATASET POLYDATA
POINTS 716 float
21546700.000 4556650.000 225.000
21546925.000 4556565.000 61.250
21547525.000 4556565.000 -242.500
21547600.000 4556310.000 -430.000
21546850.000 4556785.000 213.750
21546625.000 4556575.000 221.250
21546400.000 4556350.000 210.000
21546525.000 4556275.000 60.000
21546350.000 4556280.000 216.250
21547425.000 4556245.000 -420.000
21546775.000 4556125.000 -240.000
21547575.000 4556242.500 -521.250
21547550.000 4556175.000 -612.500
21547675.000 4556237.500 -548.750
21548300.000 4556280.000 -685.000
21547800.000 4556397.500 -482.500
21548200.000 4556215.000 -740.000
21547825.000 4556092.500 -786.250
21548400.000 4556010.000 -895.000
21548000.000 4556085.000 -850.000
21548675.000 4556202.500 -755.000
21549050.000 4556195.000 -713.750
21548550.000 4556367.500 -733.750
21548925.000 4556360.000 -692.500
21548250.000 4556852.500 -367.500
21548575.000 4556735.000 -633.750
21547800.000 4556945.000 -102.500
21546900.000 4556830.000 210.000
21548900.000 4557030.000 -490.000
21548050.000 4557160.000 -57.500
21548550.000 4557295.000 -290.000
21547100.000 4556970.000 225.000
21547175.000 4557032.500 231.250
21547050.000 4556935.000 221.250
21547725.000 4557190.000 96.250
21547175.000 4557032.500 231.250
21547250.000 4557095.000 237.500
21547325.000 4557157.500 243.750
21547400.000 4557220.000 250.000
21548500.000 4557360.000 -265.000
21547575.000 4557307.500 243.750
21548300.000 4557465.000 -20.000
21547750.000 4557395.000 237.500
21547925.000 4557482.500 231.250
21548100.000 4557570.000 225.000
21547925.000 4557482.500 231.250
21548300.000 4557690.000 196.250
21548675.000 4557757.500 -36.250
21548625.000 4557452.500 -265.000
21548500.000 4557810.000 167.500
21548700.000 4557930.000 138.750
21548825.000 4557952.500 61.250
21548975.000 4557810.000 -171.250
21548900.000 4558050.000 110.000
21549725.000 4557760.000 -423.750
21549275.000 4557540.000 -436.250
21550950.000 4558610.000 -453.750
21551025.000 4558432.500 -533.750
21549150.000 4558197.500 26.250
21550250.000 4558630.000 -301.250
21548925.000 4558132.500 107.500
21548950.000 4558215.000 105.000
21548975.000 4558297.500 102.500
21549000.000 4558380.000 100.000
21549100.000 4558512.500 71.250
21549400.000 4558910.000 -15.000
21549000.000 4558487.500 110.000
21549000.000 4558595.000 120.000
21549000.000 4558702.500 130.000
21549000.000 4558810.000 140.000
21550400.000 4559210.000 -305.000
21550700.000 4559190.000 -392.500
21551600.000 4559560.000 -585.000
21551600.000 4559452.500 -602.500
21551300.000 4559150.000 -567.500
21551700.000 4559560.000 -585.000
21552000.000 4559445.000 -675.000
21552150.000 4559387.500 -720.000
21552500.000 4559810.000 -740.000
21552450.000 4559690.000 -746.250
21552350.000 4559450.000 -758.750
21552600.000 4559625.000 -732.500
21552850.000 4559807.500 -736.250
21553075.000 4559660.000 -582.500
21552900.000 4559930.000 -740.000
21552950.000 4559840.000 -687.500
21553000.000 4559930.000 -740.000
21553550.000 4559997.500 -395.000
21553100.000 4559570.000 -530.000
21553700.000 4560140.000 -350.000
21553850.000 4560085.000 -248.750
21554000.000 4560030.000 -147.500
21553900.000 4560210.000 -110.000
21554000.000 4560137.500 -68.750
21554100.000 4560065.000 -27.500
21554150.000 4559975.000 -46.250
21554200.000 4559992.500 13.750
21554300.000 4559920.000 55.000
21553500.000 4559395.000 -405.000
21552750.000 4559330.000 -703.750
21554200.000 4559745.000 -28.750
21553925.000 4559065.000 -408.750
21554400.000 4559792.500 51.250
21554500.000 4559665.000 47.500
21554600.000 4559537.500 43.750
21554700.000 4559410.000 40.000
21554200.000 4559112.500 -223.750
21554800.000 4559255.000 16.250
21554900.000 4559100.000 -7.500
21555000.000 4558945.000 -31.250
21555100.000 4558790.000 -55.000
21553975.000 4558755.000 -666.250
21554925.000 4558620.000 -243.750
21554200.000 4558355.000 -802.500
21555250.000 4558660.000 -146.250
21555400.000 4558530.000 -237.500
21555550.000 4558400.000 -328.750
21554575.000 4558280.000 -621.250
21555700.000 4558270.000 -420.000
21554400.000 4558110.000 -810.000
21555475.000 4558095.000 -465.000
21554600.000 4557840.000 -705.000
21555625.000 4558107.500 -412.500
21555750.000 4558117.500 -332.500
21555550.000 4557945.000 -405.000
21555250.000 4557920.000 -510.000
21555475.000 4557782.500 -397.500
21555025.000 4557745.000 -555.000
21554700.000 4557570.000 -600.000
21555400.000 4557470.000 -370.000
21554950.000 4557440.000 -502.500
21555850.000 4557812.500 -157.500
21555900.000 4557660.000 -70.000
21555800.000 4557965.000 -245.000
21555875.000 4557582.500 -143.750
21555950.000 4557585.000 -136.250
21555800.000 4557350.000 -365.000
21556000.000 4557510.000 -202.500
21555425.000 4557167.500 -373.750
21555725.000 4557190.000 -385.000
21555100.000 4557310.000 -405.000
21554875.000 4556852.500 -416.250
21554700.000 4557280.000 -585.000
21554750.000 4556990.000 -502.500
21554350.000 4556975.000 -545.000
21554100.000 4557250.000 -600.000
21554625.000 4556845.000 -513.750
21554775.000 4556845.000 -461.250
21554100.000 4556975.000 -620.000
21554100.000 4556837.500 -630.000
21553750.000 4556950.000 -535.000
21553400.000 4557200.000 -430.000
21553400.000 4556542.500 -660.000
21553350.000 4556815.000 -527.500
21553775.000 4556232.500 -713.750
21553400.000 4556247.500 -860.000
21554050.000 4556545.000 -671.250
21553900.000 4556080.000 -765.000
21554250.000 4556537.500 -553.750
21554600.000 4556700.000 -490.000
21554400.000 4556375.000 -467.500
21554650.000 4556375.000 -392.500
21554775.000 4556537.500 -388.750
21554725.000 4556212.500 -326.250
21554700.000 4556050.000 -295.000
21554750.000 4556375.000 -357.500
21554900.000 4556215.000 -332.500
21555000.000 4556537.500 -388.750
21555250.000 4556380.000 -330.000
21554800.000 4556700.000 -420.000
21555450.000 4557015.000 -397.500
21555525.000 4556545.000 -347.500
21555800.000 4556870.000 -365.000
21555650.000 4557030.000 -405.000
21555675.000 4556545.000 -272.500
21556000.000 4556710.000 -265.000
21555350.000 4556380.000 -280.000
21555025.000 4556215.000 -287.500
21555950.000 4556870.000 -290.000
21555900.000 4557030.000 -315.000
21556100.000 4556877.500 -243.750
21556050.000 4557035.000 -300.000
21556225.000 4556885.000 -167.500
21556200.000 4557045.000 -222.500
21556300.000 4557212.500 -201.250
21556075.000 4557197.500 -317.500
21555850.000 4557190.000 -340.000
21556100.000 4557360.000 -335.000
21556900.000 4557410.000 125.000
21555800.000 4557030.000 -365.000
21556150.000 4557520.000 -125.000
21556650.000 4557472.500 76.250
21556025.000 4557590.000 -97.500
21556150.000 4557597.500 -21.250
21556400.000 4557535.000 27.500
21556300.000 4557212.500 -201.250
21556450.000 4557060.000 -70.000
21556675.000 4557235.000 27.500
21554575.000 4555997.500 -318.750
21554050.000 4555960.000 -577.500
21554600.000 4555997.500 -295.000
21554500.000 4555945.000 -295.000
21554400.000 4555892.500 -295.000
21554325.000 4555892.500 -366.250
21554300.000 4555840.000 -295.000
21554125.000 4555802.500 -402.500
21554050.000 4555802.500 -473.750
21553500.000 4555980.000 -892.500
21553950.000 4555765.000 -510.000
21553775.000 4555727.500 -617.500
21553750.000 4555727.500 -641.250
21553600.000 4555817.500 -800.000
21553600.000 4555690.000 -725.000
21553225.000 4555825.000 -923.750
21552950.000 4555705.000 -926.250
21553100.000 4555990.000 -982.500
21553450.000 4555657.500 -686.250
21552950.000 4555605.000 -737.500
21552775.000 4555605.000 -870.000
21553300.000 4555625.000 -647.500
21553150.000 4555592.500 -608.750
21553000.000 4555560.000 -570.000
21552525.000 4555515.000 -800.000
21552325.000 4555405.000 -702.500
21552150.000 4555530.000 -787.500
21552875.000 4555500.000 -490.000
21552450.000 4555395.000 -507.500
21552000.000 4555290.000 -745.000
21552750.000 4555440.000 -410.000
21552625.000 4555380.000 -330.000
21552500.000 4555320.000 -250.000
21552100.000 4555180.000 -243.750
21552100.000 4555180.000 -232.500
21551700.000 4555040.000 -222.500
21551800.000 4555097.500 -431.250
21551500.000 4554985.000 -347.500
21551800.000 4555110.000 -615.000
21551850.000 4555240.000 -795.000
21551575.000 4555022.500 -506.250
21551250.000 4555020.000 -645.000
21551350.000 4554935.000 -397.500
21551150.000 4554887.500 -512.500
21551200.000 4554872.500 -263.750
21551100.000 4554855.000 -382.500
21551300.000 4554900.000 -197.500
21550900.000 4554760.000 -180.000
21551000.000 4554807.500 -281.250
21550850.000 4554762.500 -367.500
21550700.000 4554700.000 -295.000
21550575.000 4554672.500 -312.500
21550275.000 4554610.000 -353.750
21550700.000 4554690.000 -295.000
21550500.000 4554580.000 -320.000
21550100.000 4554400.000 -235.000
21550025.000 4554495.000 -295.000
21550100.000 4554715.000 -490.000
21549675.000 4554245.000 -155.000
21549350.000 4554142.500 -98.750
21549500.000 4554120.000 -85.000
21548375.000 4553685.000 100.000
21548900.000 4554210.000 -140.000
21548276.469 4553586.477 145.040
21548100.000 4553600.000 152.500
21548406.750 4553607.012 137.856
21548115.609 4553585.953 156.792
21547800.000 4553870.000 70.000
21547965.953 4553592.594 168.551
21547379.313 4553618.609 214.646
21547309.859 4553626.813 217.986
21547096.719 4553651.984 228.238
21546850.000 4553797.500 141.250
21547008.984 4553650.801 231.280
21547400.000 4554190.000 -125.000
21547725.000 4554052.500 -97.500
21546200.000 4554137.500 272.500
21547200.000 4554350.000 -222.500
21546400.000 4553945.000 280.000
21546535.813 4553814.273 285.093
21546624.703 4553756.945 273.051
21546815.547 4553633.848 247.195
21547575.000 4554417.500 -432.500
21546000.000 4554330.000 265.000
21546750.000 4554687.500 -205.000
21547225.000 4555102.500 -500.000
21546000.000 4554552.500 233.750
21546000.000 4554997.500 171.250
21546000.000 4554552.500 233.750
21546000.000 4554775.000 202.500
21546250.000 4555042.500 25.000
21546000.000 4555220.000 140.000
21547300.000 4555300.000 -560.000
21547350.000 4555125.000 -570.000
21546225.000 4555427.500 7.500
21547100.000 4555675.000 -475.000
[...]
POINT_DATA 716
COLOR_SCALARS GocadColor 4
0.741176 0.321569 0.741176 1
0.741176 0.321569 0.741176 1
0.741176 0.321569 0.741176 1
0.741176 0.321569 0.741176 1
0.741176 0.321569 0.741176 1
0.741176 0.321569 0.741176 1
0.741176 0.321569 0.741176 1
0.741176 0.321569 0.741176 1
0.741176 0.321569 0.741176 1
0.741176 0.321569 0.741176 1
0.741176 0.321569 0.741176 1
0.741176 0.321569 0.741176 1
0.741176 0.321569 0.741176 1
0.741176 0.321569 0.741176 1
0.741176 0.321569 0.741176 1
0.741176 0.321569 0.741176 1
0.741176 0.321569 0.741176 1
0.741176 0.321569 0.741176 1
0.741176 0.321569 0.741176 1
0.741176 0.321569 0.741176 1
0.741176 0.321569 0.741176 1
0.741176 0.321569 0.741176 1
0.741176 0.321569 0.741176 1
0.741176 0.321569 0.741176 1
0.741176 0.321569 0.741176 1
0.741176 0.321569 0.741176 1
0.741176 0.321569 0.741176 1
0.741176 0.321569 0.741176 1
0.741176 0.321569 0.741176 1
0.741176 0.321569 0.741176 1
0.741176 0.321569 0.741176 1
0.741176 0.321569 0.741176 1
0.741176 0.321569 0.741176 1
0.741176 0.321569 0.741176 1
0.741176 0.321569 0.741176 1
0.741176 0.321569 0.741176 1
0.741176 0.321569 0.741176 1
0.741176 0.321569 0.741176 1
0.741176 0.321569 0.741176 1
0.741176 0.321569 0.741176 1
0.741176 0.321569 0.741176 1
0.741176 0.321569 0.741176 1
0.741176 0.321569 0.741176 1
0.741176 0.321569 0.741176 1
0.741176 0.321569 0.741176 1
0.741176 0.321569 0.741176 1
0.741176 0.321569 0.741176 1
0.741176 0.321569 0.741176 1
0.741176 0.321569 0.741176 1
0.741176 0.321569 0.741176 1
0.741176 0.321569 0.741176 1
0.741176 0.321569 0.741176 1
0.741176 0.321569 0.741176 1
0.741176 0.321569 0.741176 1
0.741176 0.321569 0.741176 1
0.741176 0.321569 0.741176 1
0.741176 0.321569 0.741176 1
0.741176 0.321569 0.741176 1
0.741176 0.321569 0.741176 1
0.741176 0.321569 0.741176 1
0.741176 0.321569 0.741176 1
0.741176 0.321569 0.741176 1
0.741176 0.321569 0.741176 1
0.741176 0.321569 0.741176 1
0.741176 0.321569 0.741176 1
0.741176 0.321569 0.741176 1
0.741176 0.321569 0.741176 1
0.741176 0.321569 0.741176 1
0.741176 0.321569 0.741176 1
0.741176 0.321569 0.741176 1
0.741176 0.321569 0.741176 1
0.741176 0.321569 0.741176 1
0.741176 0.321569 0.741176 1
0.741176 0.321569 0.741176 1
0.741176 0.321569 0.741176 1
0.741176 0.321569 0.741176 1
0.741176 0.321569 0.741176 1
0.741176 0.321569 0.741176 1
0.741176 0.321569 0.741176 1
0.741176 0.321569 0.741176 1
0.741176 0.321569 0.741176 1
0.741176 0.321569 0.741176 1
0.741176 0.321569 0.741176 1
0.741176 0.321569 0.741176 1
0.741176 0.321569 0.741176 1
0.741176 0.321569 0.741176 1
0.741176 0.321569 0.741176 1
0.741176 0.321569 0.741176 1
0.741176 0.321569 0.741176 1
0.741176 0.321569 0.741176 1
0.741176 0.321569 0.741176 1
0.741176 0.321569 0.741176 1
0.741176 0.321569 0.741176 1
0.741176 0.321569 0.741176 1
0.741176 0.321569 0.741176 1
0.741176 0.321569 0.741176 1
0.741176 0.321569 0.741176 1
0.741176 0.321569 0.741176 1
0.741176 0.321569 0.741176 1
0.741176 0.321569 0.741176 1
0.741176 0.321569 0.741176 1
0.741176 0.321569 0.741176 1
0.741176 0.321569 0.741176 1
0.741176 0.321569 0.741176 1
0.741176 0.321569 0.741176 1
0.741176 0.321569 0.741176 1
0.741176 0.321569 0.741176 1
0.741176 0.321569 0.741176 1
0.741176 0.321569 0.741176 1
0.741176 0.321569 0.741176 1
0.741176 0.321569 0.741176 1
0.741176 0.321569 0.741176 1
0.741176 0.321569 0.741176 1
0.741176 0.321569 0.741176 1
0.741176 0.321569 0.741176 1
0.741176 0.321569 0.741176 1
0.741176 0.321569 0.741176 1
0.741176 0.321569 0.741176 1
0.741176 0.321569 0.741176 1
0.741176 0.321569 0.741176 1
0.741176 0.321569 0.741176 1
0.741176 0.321569 0.741176 1
0.741176 0.321569 0.741176 1
0.741176 0.321569 0.741176 1
0.741176 0.321569 0.741176 1
0.741176 0.321569 0.741176 1
0.741176 0.321569 0.741176 1
0.741176 0.321569 0.741176 1
0.741176 0.321569 0.741176 1
0.741176 0.321569 0.741176 1
0.741176 0.321569 0.741176 1
0.741176 0.321569 0.741176 1
0.741176 0.321569 0.741176 1
0.741176 0.321569 0.741176 1
0.741176 0.321569 0.741176 1
0.741176 0.321569 0.741176 1
0.741176 0.321569 0.741176 1
0.741176 0.321569 0.741176 1
0.741176 0.321569 0.741176 1
0.741176 0.321569 0.741176 1
0.741176 0.321569 0.741176 1
0.741176 0.321569 0.741176 1
0.741176 0.321569 0.741176 1
0.741176 0.321569 0.741176 1
0.741176 0.321569 0.741176 1
0.741176 0.321569 0.741176 1
0.741176 0.321569 0.741176 1
0.741176 0.321569 0.741176 1
0.741176 0.321569 0.741176 1
0.741176 0.321569 0.741176 1
0.741176 0.321569 0.741176 1
0.741176 0.321569 0.741176 1
0.741176 0.321569 0.741176 1
0.741176 0.321569 0.741176 1
0.741176 0.321569 0.741176 1
0.741176 0.321569 0.741176 1
0.741176 0.321569 0.741176 1
0.741176 0.321569 0.741176 1
0.741176 0.321569 0.741176 1
0.741176 0.321569 0.741176 1
0.741176 0.321569 0.741176 1
0.741176 0.321569 0.741176 1
0.741176 0.321569 0.741176 1
0.741176 0.321569 0.741176 1
0.741176 0.321569 0.741176 1
0.741176 0.321569 0.741176 1
0.741176 0.321569 0.741176 1
0.741176 0.321569 0.741176 1
0.741176 0.321569 0.741176 1
0.741176 0.321569 0.741176 1
0.741176 0.321569 0.741176 1
0.741176 0.321569 0.741176 1
0.741176 0.321569 0.741176 1
0.741176 0.321569 0.741176 1
0.741176 0.321569 0.741176 1
0.741176 0.321569 0.741176 1
0.741176 0.321569 0.741176 1
0.741176 0.321569 0.741176 1
0.741176 0.321569 0.741176 1
0.741176 0.321569 0.741176 1
0.741176 0.321569 0.741176 1
0.741176 0.321569 0.741176 1
0.741176 0.321569 0.741176 1
0.741176 0.321569 0.741176 1
0.741176 0.321569 0.741176 1
0.741176 0.321569 0.741176 1
0.741176 0.321569 0.741176 1
0.741176 0.321569 0.741176 1
0.741176 0.321569 0.741176 1
0.741176 0.321569 0.741176 1
0.741176 0.321569 0.741176 1
0.741176 0.321569 0.741176 1
0.741176 0.321569 0.741176 1
0.741176 0.321569 0.741176 1
0.741176 0.321569 0.741176 1
0.741176 0.321569 0.741176 1
0.741176 0.321569 0.741176 1
0.741176 0.321569 0.741176 1
0.741176 0.321569 0.741176 1
0.741176 0.321569 0.741176 1
0.741176 0.321569 0.741176 1
0.741176 0.321569 0.741176 1
0.741176 0.321569 0.741176 1
0.741176 0.321569 0.741176 1
0.741176 0.321569 0.741176 1
0.741176 0.321569 0.741176 1
0.741176 0.321569 0.741176 1
0.741176 0.321569 0.741176 1
0.741176 0.321569 0.741176 1
0.741176 0.321569 0.741176 1
0.741176 0.321569 0.741176 1
0.741176 0.321569 0.741176 1
0.741176 0.321569 0.741176 1
0.741176 0.321569 0.741176 1
0.741176 0.321569 0.741176 1
0.741176 0.321569 0.741176 1
0.741176 0.321569 0.741176 1
0.741176 0.321569 0.741176 1
0.741176 0.321569 0.741176 1
0.741176 0.321569 0.741176 1
0.741176 0.321569 0.741176 1
0.741176 0.321569 0.741176 1
0.741176 0.321569 0.741176 1
0.741176 0.321569 0.741176 1
0.741176 0.321569 0.741176 1
0.741176 0.321569 0.741176 1
0.741176 0.321569 0.741176 1
0.741176 0.321569 0.741176 1
0.741176 0.321569 0.741176 1
0.741176 0.321569 0.741176 1
0.741176 0.321569 0.741176 1
0.741176 0.321569 0.741176 1
0.741176 0.321569 0.741176 1
0.741176 0.321569 0.741176 1
0.741176 0.321569 0.741176 1
0.741176 0.321569 0.741176 1
0.741176 0.321569 0.741176 1
0.741176 0.321569 0.741176 1
0.741176 0.321569 0.741176 1
0.741176 0.321569 0.741176 1
0.741176 0.321569 0.741176 1
0.741176 0.321569 0.741176 1
0.741176 0.321569 0.741176 1
0.741176 0.321569 0.741176 1
0.741176 0.321569 0.741176 1
0.741176 0.321569 0.741176 1
0.741176 0.321569 0.741176 1
0.741176 0.321569 0.741176 1
0.741176 0.321569 0.741176 1
0.741176 0.321569 0.741176 1
0.741176 0.321569 0.741176 1
0.741176 0.321569 0.741176 1
0.741176 0.321569 0.741176 1
0.741176 0.321569 0.741176 1
0.741176 0.321569 0.741176 1
0.741176 0.321569 0.741176 1
0.741176 0.321569 0.741176 1
0.741176 0.321569 0.741176 1
0.741176 0.321569 0.741176 1
0.741176 0.321569 0.741176 1
0.741176 0.321569 0.741176 1
0.741176 0.321569 0.741176 1
0.741176 0.321569 0.741176 1
0.741176 0.321569 0.741176 1
0.741176 0.321569 0.741176 1
0.741176 0.321569 0.741176 1
0.741176 0.321569 0.741176 1
0.741176 0.321569 0.741176 1
0.741176 0.321569 0.741176 1
0.741176 0.321569 0.741176 1
0.741176 0.321569 0.741176 1
0.741176 0.321569 0.741176 1
0.741176 0.321569 0.741176 1
0.741176 0.321569 0.741176 1
0.741176 0.321569 0.741176 1
0.741176 0.321569 0.741176 1
0.741176 0.321569 0.741176 1
0.741176 0.321569 0.741176 1
0.741176 0.321569 0.741176 1
0.741176 0.321569 0.741176 1
0.741176 0.321569 0.741176 1
0.741176 0.321569 0.741176 1
0.741176 0.321569 0.741176 1
0.741176 0.321569 0.741176 1
0.741176 0.321569 0.741176 1
0.741176 0.321569 0.741176 1
0.741176 0.321569 0.741176 1
0.741176 0.321569 0.741176 1
0.741176 0.321569 0.741176 1
0.741176 0.321569 0.741176 1
0.741176 0.321569 0.741176 1
0.741176 0.321569 0.741176 1
0.741176 0.321569 0.741176 1
0.741176 0.321569 0.741176 1
0.741176 0.321569 0.741176 1
0.741176 0.321569 0.741176 1
0.741176 0.321569 0.741176 1
0.741176 0.321569 0.741176 1
0.741176 0.321569 0.741176 1
0.741176 0.321569 0.741176 1
0.741176 0.321569 0.741176 1
0.741176 0.321569 0.741176 1
0.741176 0.321569 0.741176 1
0.741176 0.321569 0.741176 1
0.741176 0.321569 0.741176 1
0.741176 0.321569 0.741176 1
0.741176 0.321569 0.741176 1
0.741176 0.321569 0.741176 1
0.741176 0.321569 0.741176 1
0.741176 0.321569 0.741176 1
0.741176 0.321569 0.741176 1
0.741176 0.321569 0.741176 1
0.741176 0.321569 0.741176 1
0.741176 0.321569 0.741176 1
0.741176 0.321569 0.741176 1
0.741176 0.321569 0.741176 1
0.741176 0.321569 0.741176 1
0.741176 0.321569 0.741176 1
0.741176 0.321569 0.741176 1
0.741176 0.321569 0.741176 1
0.741176 0.321569 0.741176 1
0.741176 0.321569 0.741176 1
0.741176 0.321569 0.741176 1
0.741176 0.321569 0.741176 1
0.741176 0.321569 0.741176 1
0.741176 0.321569 0.741176 1
0.741176 0.321569 0.741176 1
0.741176 0.321569 0.741176 1
0.741176 0.321569 0.741176 1
0.741176 0.321569 0.741176 1
0.741176 0.321569 0.741176 1
0.741176 0.321569 0.741176 1
0.741176 0.321569 0.741176 1
0.741176 0.321569 0.741176 1
0.741176 0.321569 0.741176 1
0.741176 0.321569 0.741176 1
0.741176 0.321569 0.741176 1
0.741176 0.321569 0.741176 1
0.741176 0.321569 0.741176 1
0.741176 0.321569 0.741176 1
0.741176 0.321569 0.741176 1
0.741176 0.321569 0.741176 1
0.741176 0.321569 0.741176 1
0.741176 0.321569 0.741176 1
0.741176 0.321569 0.741176 1
0.741176 0.321569 0.741176 1
0.741176 0.321569 0.741176 1
0.741176 0.321569 0.741176 1
0.741176 0.321569 0.741176 1
0.741176 0.321569 0.741176 1
0.741176 0.321569 0.741176 1
0.741176 0.321569 0.741176 1
0.741176 0.321569 0.741176 1
0.741176 0.321569 0.741176 1
0.741176 0.321569 0.741176 1
0.741176 0.321569 0.741176 1
0.741176 0.321569 0.741176 1
0.741176 0.321569 0.741176 1
0.741176 0.321569 0.741176 1
0.741176 0.321569 0.741176 1
0.741176 0.321569 0.741176 1
0.741176 0.321569 0.741176 1
0.741176 0.321569 0.741176 1
0.741176 0.321569 0.741176 1
0.741176 0.321569 0.741176 1
0.741176 0.321569 0.741176 1
0.741176 0.321569 0.741176 1
0.741176 0.321569 0.741176 1
0.741176 0.321569 0.741176 1
0.741176 0.321569 0.741176 1
0.741176 0.321569 0.741176 1
0.741176 0.321569 0.741176 1
0.741176 0.321569 0.741176 1
0.741176 0.321569 0.741176 1
0.741176 0.321569 0.741176 1
0.741176 0.321569 0.741176 1
0.741176 0.321569 0.741176 1
0.741176 0.321569 0.741176 1
0.741176 0.321569 0.741176 1
0.741176 0.321569 0.741176 1
0.741176 0.321569 0.741176 1
0.741176 0.321569 0.741176 1
0.741176 0.321569 0.741176 1
0.741176 0.321569 0.741176 1
0.741176 0.321569 0.741176 1
0.741176 0.321569 0.741176 1
0.741176 0.321569 0.741176 1
0.741176 0.321569 0.741176 1
0.741176 0.321569 0.741176 1
0.741176 0.321569 0.741176 1
0.741176 0.321569 0.741176 1
0.741176 0.321569 0.741176 1
0.741176 0.321569 0.741176 1
0.741176 0.321569 0.741176 1
0.741176 0.321569 0.741176 1
0.741176 0.321569 0.741176 1
0.741176 0.321569 0.741176 1
0.741176 0.321569 0.741176 1
0.741176 0.321569 0.741176 1
0.741176 0.321569 0.741176 1
0.741176 0.321569 0.741176 1
0.741176 0.321569 0.741176 1
0.741176 0.321569 0.741176 1
0.741176 0.321569 0.741176 1
0.741176 0.321569 0.741176 1
0.741176 0.321569 0.741176 1
0.741176 0.321569 0.741176 1
0.741176 0.321569 0.741176 1
0.741176 0.321569 0.741176 1
0.741176 0.321569 0.741176 1
0.741176 0.321569 0.741176 1
0.741176 0.321569 0.741176 1
0.741176 0.321569 0.741176 1
0.741176 0.321569 0.741176 1
0.741176 0.321569 0.741176 1
0.741176 0.321569 0.741176 1
0.741176 0.321569 0.741176 1
0.741176 0.321569 0.741176 1
0.741176 0.321569 0.741176 1
0.741176 0.321569 0.741176 1
0.741176 0.321569 0.741176 1
0.741176 0.321569 0.741176 1
0.741176 0.321569 0.741176 1
0.741176 0.321569 0.741176 1
0.741176 0.321569 0.741176 1
0.741176 0.321569 0.741176 1
0.741176 0.321569 0.741176 1
0.741176 0.321569 0.741176 1
0.741176 0.321569 0.741176 1
0.741176 0.321569 0.741176 1
0.741176 0.321569 0.741176 1
0.741176 0.321569 0.741176 1
0.741176 0.321569 0.741176 1
0.741176 0.321569 0.741176 1
0.741176 0.321569 0.741176 1
0.741176 0.321569 0.741176 1
0.741176 0.321569 0.741176 1
0.741176 0.321569 0.741176 1
0.741176 0.321569 0.741176 1
0.741176 0.321569 0.741176 1
0.741176 0.321569 0.741176 1
0.741176 0.321569 0.741176 1
0.741176 0.321569 0.741176 1
0.741176 0.321569 0.741176 1
0.741176 0.321569 0.741176 1
0.741176 0.321569 0.741176 1
0.741176 0.321569 0.741176 1
0.741176 0.321569 0.741176 1
0.741176 0.321569 0.741176 1
0.741176 0.321569 0.741176 1
0.741176 0.321569 0.741176 1
0.741176 0.321569 0.741176 1
0.741176 0.321569 0.741176 1
0.741176 0.321569 0.741176 1
0.741176 0.321569 0.741176 1
0.741176 0.321569 0.741176 1
0.741176 0.321569 0.741176 1
0.741176 0.321569 0.741176 1
0.741176 0.321569 0.741176 1
0.741176 0.321569 0.741176 1
0.741176 0.321569 0.741176 1
0.741176 0.321569 0.741176 1
0.741176 0.321569 0.741176 1
0.741176 0.321569 0.741176 1
0.741176 0.321569 0.741176 1
0.741176 0.321569 0.741176 1
0.741176 0.321569 0.741176 1
0.741176 0.321569 0.741176 1
0.741176 0.321569 0.741176 1
0.741176 0.321569 0.741176 1
0.741176 0.321569 0.741176 1
0.741176 0.321569 0.741176 1
0.741176 0.321569 0.741176 1
0.741176 0.321569 0.741176 1
0.741176 0.321569 0.741176 1
0.741176 0.321569 0.741176 1
0.741176 0.321569 0.741176 1
0.741176 0.321569 0.741176 1
0.741176 0.321569 0.741176 1
0.741176 0.321569 0.741176 1
0.741176 0.321569 0.741176 1
0.741176 0.321569 0.741176 1
0.741176 0.321569 0.741176 1
0.741176 0.321569 0.741176 1
0.741176 0.321569 0.741176 1
0.741176 0.321569 0.741176 1
0.741176 0.321569 0.741176 1
0.741176 0.321569 0.741176 1
0.741176 0.321569 0.741176 1
0.741176 0.321569 0.741176 1
0.741176 0.321569 0.741176 1
0.741176 0.321569 0.741176 1
0.741176 0.321569 0.741176 1
0.741176 0.321569 0.741176 1
0.741176 0.321569 0.741176 1
0.741176 0.321569 0.741176 1
0.741176 0.321569 0.741176 1
0.741176 0.321569 0.741176 1
0.741176 0.321569 0.741176 1
0.741176 0.321569 0.741176 1
0.741176 0.321569 0.741176 1
0.741176 0.321569 0.741176 1
0.741176 0.321569 0.741176 1
0.741176 0.321569 0.741176 1
0.741176 0.321569 0.741176 1
0.741176 0.321569 0.741176 1
0.741176 0.321569 0.741176 1
0.741176 0.321569 0.741176 1
0.741176 0.321569 0.741176 1
0.741176 0.321569 0.741176 1
0.741176 0.321569 0.741176 1
0.741176 0.321569 0.741176 1
0.741176 0.321569 0.741176 1
0.741176 0.321569 0.741176 1
0.741176 0.321569 0.741176 1
0.741176 0.321569 0.741176 1
0.741176 0.321569 0.741176 1
0.741176 0.321569 0.741176 1
0.741176 0.321569 0.741176 1
0.741176 0.321569 0.741176 1
0.741176 0.321569 0.741176 1
0.741176 0.321569 0.741176 1
0.741176 0.321569 0.741176 1
0.741176 0.321569 0.741176 1
0.741176 0.321569 0.741176 1
0.741176 0.321569 0.741176 1
0.741176 0.321569 0.741176 1
0.741176 0.321569 0.741176 1
0.741176 0.321569 0.741176 1
0.741176 0.321569 0.741176 1
0.741176 0.321569 0.741176 1
0.741176 0.321569 0.741176 1
0.741176 0.321569 0.741176 1
0.741176 0.321569 0.741176 1
0.741176 0.321569 0.741176 1
0.741176 0.321569 0.741176 1
0.741176 0.321569 0.741176 1
0.741176 0.321569 0.741176 1
0.741176 0.321569 0.741176 1
0.741176 0.321569 0.741176 1
0.741176 0.321569 0.741176 1
0.741176 0.321569 0.741176 1
0.741176 0.321569 0.741176 1
0.741176 0.321569 0.741176 1
0.741176 0.321569 0.741176 1
0.741176 0.321569 0.741176 1
0.741176 0.321569 0.741176 1
0.741176 0.321569 0.741176 1
0.741176 0.321569 0.741176 1
0.741176 0.321569 0.741176 1
0.741176 0.321569 0.741176 1
0.741176 0.321569 0.741176 1
0.741176 0.321569 0.741176 1
0.741176 0.321569 0.741176 1
0.741176 0.321569 0.741176 1
0.741176 0.321569 0.741176 1
0.741176 0.321569 0.741176 1
0.741176 0.321569 0.741176 1
0.741176 0.321569 0.741176 1
0.741176 0.321569 0.741176 1
0.741176 0.321569 0.741176 1
0.741176 0.321569 0.741176 1
0.741176 0.321569 0.741176 1
0.741176 0.321569 0.741176 1
0.741176 0.321569 0.741176 1
0.741176 0.321569 0.741176 1
0.741176 0.321569 0.741176 1
0.741176 0.321569 0.741176 1
0.741176 0.321569 0.741176 1
0.741176 0.321569 0.741176 1
0.741176 0.321569 0.741176 1
0.741176 0.321569 0.741176 1
0.741176 0.321569 0.741176 1
0.741176 0.321569 0.741176 1
0.741176 0.321569 0.741176 1
0.741176 0.321569 0.741176 1
0.741176 0.321569 0.741176 1
0.741176 0.321569 0.741176 1
0.741176 0.321569 0.741176 1
0.741176 0.321569 0.741176 1
0.741176 0.321569 0.741176 1
0.741176 0.321569 0.741176 1
0.741176 0.321569 0.741176 1
0.741176 0.321569 0.741176 1
0.741176 0.321569 0.741176 1
0.741176 0.321569 0.741176 1
0.741176 0.321569 0.741176 1
0.741176 0.321569 0.741176 1
0.741176 0.321569 0.741176 1
0.741176 0.321569 0.741176 1
0.741176 0.321569 0.741176 1
0.741176 0.321569 0.741176 1
0.741176 0.321569 0.741176 1
0.741176 0.321569 0.741176 1
0.741176 0.321569 0.741176 1
0.741176 0.321569 0.741176 1
0.741176 0.321569 0.741176 1
0.741176 0.321569 0.741176 1
0.741176 0.321569 0.741176 1
0.741176 0.321569 0.741176 1
0.741176 0.321569 0.741176 1
0.741176 0.321569 0.741176 1
0.741176 0.321569 0.741176 1
0.741176 0.321569 0.741176 1
0.741176 0.321569 0.741176 1
0.741176 0.321569 0.741176 1
0.741176 0.321569 0.741176 1
0.741176 0.321569 0.741176 1
0.741176 0.321569 0.741176 1
0.741176 0.321569 0.741176 1
0.741176 0.321569 0.741176 1
0.741176 0.321569 0.741176 1
0.741176 0.321569 0.741176 1
0.741176 0.321569 0.741176 1
0.741176 0.321569 0.741176 1
0.741176 0.321569 0.741176 1
0.741176 0.321569 0.741176 1
0.741176 0.321569 0.741176 1
0.741176 0.321569 0.741176 1
0.741176 0.321569 0.741176 1
0.741176 0.321569 0.741176 1
0.741176 0.321569 0.741176 1
0.741176 0.321569 0.741176 1
0.741176 0.321569 0.741176 1
0.741176 0.321569 0.741176 1
0.741176 0.321569 0.741176 1
0.741176 0.321569 0.741176 1
0.741176 0.321569 0.741176 1
0.741176 0.321569 0.741176 1
0.741176 0.321569 0.741176 1
0.741176 0.321569 0.741176 1
0.741176 0.321569 0.741176 1
0.741176 0.321569 0.741176 1
0.741176 0.321569 0.741176 1
0.741176 0.321569 0.741176 1
0.741176 0.321569 0.741176 1
0.741176 0.321569 0.741176 1
0.741176 0.321569 0.741176 1
0.741176 0.321569 0.741176 1
0.741176 0.321569 0.741176 1
0.741176 0.321569 0.741176 1
0.741176 0.321569 0.741176 1
0.741176 0.321569 0.741176 1
0.741176 0.321569 0.741176 1
0.741176 0.321569 0.741176 1
0.741176 0.321569 0.741176 1
0.741176 0.321569 0.741176 1
0.741176 0.321569 0.741176 1
0.741176 0.321569 0.741176 1
0.741176 0.321569 0.741176 1
0.741176 0.321569 0.741176 1
0.741176 0.321569 0.741176 1
0.741176 0.321569 0.741176 1
0.741176 0.321569 0.741176 1
0.741176 0.321569 0.741176 1
0.741176 0.321569 0.741176 1
0.741176 0.321569 0.741176 1
0.741176 0.321569 0.741176 1
0.741176 0.321569 0.741176 1
0.741176 0.321569 0.741176 1
0.741176 0.321569 0.741176 1
0.741176 0.321569 0.741176 1
0.741176 0.321569 0.741176 1
0.741176 0.321569 0.741176 1
0.741176 0.321569 0.741176 1
0.741176 0.321569 0.741176 1
0.741176 0.321569 0.741176 1
0.741176 0.321569 0.741176 1
0.741176 0.321569 0.741176 1
0.741176 0.321569 0.741176 1
0.741176 0.321569 0.741176 1
0.741176 0.321569 0.741176 1
0.741176 0.321569 0.741176 1
0.741176 0.321569 0.741176 1
0.741176 0.321569 0.741176 1
0.741176 0.321569 0.741176 1
0.741176 0.321569 0.741176 1
0.741176 0.321569 0.741176 1
0.741176 0.321569 0.741176 1
0.741176 0.321569 0.741176 1
0.741176 0.321569 0.741176 1
0.741176 0.321569 0.741176 1
0.741176 0.321569 0.741176 1
0.741176 0.321569 0.741176 1
0.741176 0.321569 0.741176 1
0.741176 0.321569 0.741176 1
0.741176 0.321569 0.741176 1
0.741176 0.321569 0.741176 1