# vtk DataFile Version 3.0
Gocad TSurf to VTK
ASCII
DATASET POLYDATA
POINTS 277 float
21566650.000 4554565.000 -210.000
21566662.500 4554546.250 -223.750
21566262.500 4554557.500 -65.000
21566037.500 4554502.500 -5.000
21566637.500 4554583.750 -196.250
21566625.000 4554602.500 -182.500
21566487.500 4554612.500 -125.000
21565775.000 4554562.500 103.750
21566612.500 4554621.250 -168.750
21566600.000 4554640.000 -155.000
21565800.000 4554610.000 110.000
21566537.500 4554661.250 -142.500
21565912.500 4554685.000 48.125
21566600.000 4554662.500 -170.625
21566600.000 4554685.000 -186.250
21566600.000 4554707.500 -201.875
21566412.500 4554703.750 -117.500
21566600.000 4554730.000 -217.500
21566600.000 4554752.500 -233.125
21566225.000 4554767.500 -80.000
21566600.000 4554775.000 -248.750
21566600.000 4554797.500 -264.375
21566600.000 4554820.000 -280.000
21566100.000 4554810.000 -55.000
21566175.000 4554842.500 -68.750
21566087.500 4554827.500 -46.250
21566575.000 4554835.000 -258.750
21566550.000 4554850.000 -237.500
21566525.000 4554865.000 -216.250
21566325.000 4554907.500 -96.250
21566037.500 4554897.500 -11.250
21566500.000 4554880.000 -195.000
21566475.000 4554895.000 -173.750
21566450.000 4554910.000 -152.500
21566362.500 4554923.750 -103.125
21566425.000 4554925.000 -131.250
21566400.000 4554940.000 -110.000
21566000.000 4554950.000 15.000
21566075.000 4554977.500 -2.500
21565987.500 4554968.750 26.875
21566387.500 4554955.000 -103.125
21566350.000 4555000.000 -82.500
21566412.500 4554953.750 -115.625
21566425.000 4554967.500 -121.250
21566437.500 4554981.250 -126.875
21566450.000 4554995.000 -132.500
21566462.500 4555008.750 -138.125
21566475.000 4555022.500 -143.750
21566300.000 4555060.000 -55.000
21566187.500 4555018.750 -28.750
21566487.500 4555036.250 -149.375
21566500.000 4555050.000 -155.000
21566462.500 4555062.500 -144.375
21566275.000 4555082.500 -58.750
21566050.000 4555125.000 20.000
21566425.000 4555075.000 -133.750
21566387.500 4555087.500 -123.125
21566350.000 4555100.000 -112.500
21566312.500 4555112.500 -101.875
21566225.000 4555127.500 -66.250
21566275.000 4555125.000 -91.250
21566237.500 4555137.500 -80.625
21566212.500 4555138.750 -68.125
21566125.000 4555137.500 -25.000
21566200.000 4555150.000 -70.000
21565900.000 4555190.000 70.000
21565900.000 4555178.750 75.000
21565950.000 4555215.000 60.000
21565900.000 4555207.500 75.000
21566187.500 4555167.500 -57.500
21566175.000 4555185.000 -45.000
21566162.500 4555202.500 -32.500
21566150.000 4555220.000 -20.000
21566075.000 4555277.500 35.000
21566137.500 4555237.500 -7.500
21566125.000 4555255.000 5.000
21566112.500 4555272.500 17.500
21566100.000 4555290.000 30.000
21565900.000 4555330.000 110.000
21565800.000 4555305.000 148.750
21565600.000 4555255.000 226.250
21565500.000 4555390.000 280.000
21565500.000 4555370.000 278.125
21565500.000 4555350.000 276.250
21565500.000 4555370.000 278.125
21565500.000 4555330.000 274.375
21565550.000 4555242.500 245.625
21565500.000 4555230.000 265.000
21565500.000 4555250.000 266.875
21565550.000 4555213.750 245.625
21565500.000 4555217.500 270.000
21565487.500 4555217.500 270.000
21565475.000 4555205.000 275.000
21565462.500 4555192.500 280.000
21565450.000 4555180.000 285.000
21565500.000 4555180.000 285.000
21565600.000 4555197.500 226.250
21565437.500 4555167.500 290.000
21565850.000 4555116.250 129.375
21565500.000 4555155.000 295.000
21565425.000 4555155.000 295.000
21565437.500 4555167.500 290.000
21565450.000 4555180.000 285.000
21565412.500 4555142.500 300.000
21565400.000 4555130.000 305.000
21565750.000 4555067.500 156.250
21565937.500 4555043.750 74.375
21565450.000 4555090.000 302.500
21565387.500 4555110.000 303.750
21565375.000 4555090.000 302.500
21565425.000 4555070.000 301.250
21565600.000 4555035.000 202.500
21565400.000 4555050.000 300.000
21565525.000 4555018.750 225.625
21565337.500 4555030.000 298.750
21565737.500 4554893.750 114.375
21565300.000 4554970.000 295.000
21565325.000 4554990.000 296.250
21565300.000 4554906.250 289.375
21565562.500 4554856.250 180.625
21565300.000 4554842.500 283.750
21565300.000 4554821.250 281.875
21565300.000 4554800.000 280.000
21565362.500 4554776.250 258.750
21565425.000 4554752.500 237.500
21565287.500 4554772.500 283.125
21565262.500 4554717.500 289.375
21565212.500 4554607.500 301.875
21565237.500 4554662.500 295.625
21565550.000 4554705.000 195.000
21565800.000 4554610.000 110.000
21565325.000 4555010.000 297.500
21565312.500 4554990.000 296.250
21565325.000 4555010.000 297.500
21565350.000 4555010.000 297.500
21565350.000 4555050.000 300.000
21565362.500 4555070.000 301.250
21565375.000 4555090.000 302.500
21565500.000 4555250.000 266.875
21565500.000 4555290.000 270.625
21565500.000 4555310.000 272.500
21565262.500 4554560.000 277.500
21565200.000 4554580.000 305.000
21565637.500 4554440.000 112.500
21565700.000 4554420.000 85.000
21565200.000 4554455.000 298.750
21565200.000 4554405.000 296.250
21565200.000 4554505.000 301.250
21565200.000 4554505.000 301.250
21565200.000 4554380.000 295.000
21565250.000 4554361.250 270.625
21565550.000 4554248.750 124.375
21565200.000 4554332.500 291.250
21565200.000 4554213.750 281.875
21565200.000 4554190.000 280.000
21565575.000 4554182.500 120.625
21565750.000 4554401.250 62.500
21565250.000 4554105.000 276.250
21565275.000 4554062.500 274.375
21565500.000 4554040.000 182.500
21565375.000 4553892.500 266.875
21565400.000 4553850.000 265.000
21565900.000 4553910.000 70.000
21565862.500 4553950.000 73.750
21565700.000 4553780.000 175.000
21565925.000 4553888.750 65.000
21565412.500 4553825.000 266.875
21565425.000 4553800.000 268.750
21565412.500 4553825.000 266.875
21565450.000 4553750.000 272.500
21565462.500 4553725.000 274.375
21565437.500 4553775.000 270.625
21565462.500 4553725.000 274.375
21565475.000 4553700.000 276.250
21565487.500 4553675.000 278.125
21565500.000 4553650.000 280.000
21565600.000 4553715.000 227.500
21566075.000 4553761.250 35.000
21566100.000 4553740.000 30.000
21565562.500 4553613.750 262.500
21566050.000 4553550.000 85.000
21565575.000 4553526.250 268.750
21565625.000 4553443.750 261.250
21565750.000 4553505.000 210.000
21565650.000 4553402.500 257.500
21565700.000 4553320.000 250.000
21565675.000 4553361.250 253.750
21566012.500 4553407.500 126.250
21565975.000 4553222.500 181.250
21566025.000 4553296.250 141.875
21565775.000 4553128.750 270.625
21565950.000 4553085.000 222.500
21565825.000 4553001.250 284.375
21565925.000 4552947.500 263.750
21565875.000 4552873.750 298.125
21566087.500 4552896.250 201.250
21566100.000 4553105.000 147.500
21566100.000 4552830.000 210.000
21565900.000 4552810.000 305.000
21566175.000 4552913.750 153.125
21566200.000 4552850.000 155.000
21566150.000 4552977.500 151.250
21566212.500 4552920.000 131.875
21566225.000 4552990.000 108.750
21566237.500 4553060.000 85.625
21566250.000 4553130.000 62.500
21566037.500 4553161.250 166.250
21566262.500 4553200.000 39.375
21566275.000 4553270.000 16.250
21566287.500 4553340.000 -6.875
21566300.000 4553410.000 -30.000
21566275.000 4553451.250 -22.500
21566312.500 4553456.250 -36.875
21566325.000 4553502.500 -43.750
21566337.500 4553548.750 -50.625
21566350.000 4553595.000 -57.500
21566125.000 4553698.750 22.500
21566362.500 4553641.250 -64.375
21566375.000 4553687.500 -71.250
21566387.500 4553733.750 -78.125
21566400.000 4553780.000 -85.000
21566212.500 4553826.250 -28.125
21566400.000 4553803.750 -90.000
21566400.000 4553827.500 -95.000
21566400.000 4553851.250 -100.000
21566287.500 4553883.750 -66.875
21566400.000 4553875.000 -105.000
21566400.000 4553898.750 -110.000
21566400.000 4553922.500 -115.000
21566362.500 4553941.250 -105.625
21566400.000 4553946.250 -120.000
21566400.000 4553970.000 -125.000
21566025.000 4554135.000 -33.125
21566362.500 4554007.500 -121.250
21566175.000 4554195.000 -102.500
21566437.500 4554013.750 -153.125
21566475.000 4554057.500 -181.250
21566512.500 4554101.250 -209.375
21566550.000 4554145.000 -237.500
21566587.500 4554188.750 -265.625
21566625.000 4554232.500 -293.750
21566100.000 4554270.000 -95.000
21566662.500 4554276.250 -321.875
21566700.000 4554320.000 -350.000
21566050.000 4554288.750 -72.500
21566700.000 4554341.250 -339.375
21566700.000 4554362.500 -328.750
21566400.000 4554380.000 -180.000
21566700.000 4554383.750 -318.125
21566700.000 4554405.000 -307.500
21566475.000 4554407.500 -201.250
21566700.000 4554426.250 -296.875
21566700.000 4554447.500 -286.250
21566700.000 4554468.750 -275.625
21566700.000 4554490.000 -265.000
21566687.500 4554508.750 -251.250
21566675.000 4554527.500 -237.500
21565875.000 4552873.750 298.125
21565212.500 4554607.500 301.875
21565212.500 4554607.500 301.875
21565800.000 4554610.000 110.000
21565200.000 4554580.000 305.000
21565475.000 4555110.000 303.750
21565500.000 4555130.000 305.000
21565400.000 4555130.000 305.000
21565400.000 4555130.000 305.000
21565437.500 4555167.500 290.000
21565500.000 4555155.000 295.000
21565425.000 4555155.000 295.000
21565425.000 4555155.000 295.000
21565437.500 4555167.500 290.000
21565412.500 4555142.500 300.000
21565425.000 4555155.000 295.000
21565600.000 4555255.000 226.250
21565550.000 4555242.500 245.625
21565500.000 4555310.000 272.500
21565500.000 4555330.000 274.375

POLYGONS 377 1508
3 38 41 40
3 199 200 197
3 62 59 63
3 19 18 16
3 106 66 54
3 195 199 197
3 246 245 244
3 80 79 68
3 175 178 179
3 163 162 159
3 13 9 11
3 79 85 83
3 49 38 39
3 230 228 229
3 6 7 10
3 123 124 125
3 224 223 221
3 64 61 62
3 32 31 29
3 183 185 184
3 159 160 158
3 115 116 113
3 252 251 250
3 191 196 195
3 65 68 67
3 172 170 173
3 81 78 79
3 141 147 142
3 207 205 206
3 11 9 10
3 131 114 113
3 167 169 171
3 128 124 129
3 102 93 95
3 116 115 118
3 177 178 176
3 64 62 63
3 117 131 113
3 114 111 113
3 85 86 83
3 20 18 19
3 72 71 67
3 212 210 211
3 155 157 154
3 114 131 134
3 14 13 11
3 257 194 198
3 105 109 107
3 73 72 67
3 58 57 53
3 15 14 11
3 211 180 216
3 208 189 209
3 214 213 211
3 98 97 96
3 9 6 10
3 63 54 66
3 82 83 84
3 177 170 164
3 208 207 189
3 218 217 216
3 22 21 19
3 110 107 109
3 144 143 7
3 59 58 53
3 144 151 150
3 166 167 168
3 34 29 30
3 47 46 41
3 147 148 142
3 209 189 187
3 239 234 240
3 201 199 195
3 253 252 250
3 145 141 143
3 191 193 192
3 183 180 187
3 28 27 24
3 42 36 40
3 49 106 54
3 122 23 123
3 116 117 113
3 54 59 53
3 152 149 150
3 41 45 40
3 24 25 30
3 151 144 156
3 138 88 87
3 179 182 181
3 112 135 136
3 164 170 169
3 103 100 97
3 188 189 206
3 204 203 196
3 255 254 3
3 178 216 180
3 94 97 99
3 151 154 153
3 224 221 225
3 94 95 93
3 37 39 38
3 87 65 89
3 248 246 247
3 55 52 53
3 97 100 99
3 52 48 53
3 33 29 34
3 37 30 115
3 175 170 176
3 229 228 225
3 199 201 202
3 82 81 79
3 36 37 38
3 236 233 234
3 45 44 40
3 140 86 139
3 117 132 133
3 80 86 85
3 223 222 221
3 161 166 168
3 89 66 96
3 42 40 43
3 167 166 164
3 90 92 91
3 37 34 30
3 141 142 10
3 95 101 102
3 211 187 180
3 143 149 146
3 96 94 89
3 141 145 147
3 228 227 225
3 112 136 110
3 65 87 86
3 41 49 48
3 83 86 140
3 87 90 91
3 233 231 232
3 118 120 116
3 57 56 53
3 48 49 54
3 161 162 164
3 199 202 200
3 94 101 95
3 204 196 205
3 157 155 158
3 18 17 16
3 89 93 92
3 244 241 232
3 170 172 171
3 210 209 187
3 77 76 73
3 249 248 247
3 161 160 159
3 25 120 119
3 149 144 150
3 76 75 73
3 108 104 107
3 68 65 86
3 158 155 159
3 141 7 143
3 7 141 10
3 111 106 39
3 51 50 48
3 122 126 127
3 117 116 132
3 68 86 80
3 8 5 6
3 251 249 250
3 23 22 19
3 51 48 52
3 16 15 11
3 109 112 110
3 40 36 38
3 29 28 24
3 124 123 23
3 5 4 2
3 201 195 196
3 115 113 37
3 1 256 3
3 31 28 29
3 128 126 124
3 183 184 182
3 213 212 211
3 129 124 12
3 226 224 225
3 198 194 193
3 193 194 192
3 99 101 94
3 155 151 156
3 205 196 206
3 98 96 66
3 119 115 30
3 162 161 159
3 124 126 125
3 169 170 171
3 217 215 216
3 19 12 23
3 190 188 191
3 129 12 10
3 233 235 231
3 17 15 16
3 65 66 89
3 25 121 120
3 245 243 244
3 33 32 29
3 36 35 34
3 26 22 24
3 233 232 234
3 3 144 7
3 156 144 250
3 162 165 164
3 146 145 143
3 241 243 242
3 176 170 177
3 174 170 175
3 97 94 96
3 188 206 191
3 74 72 73
3 158 160 157
3 178 177 221
3 82 79 83
3 193 191 195
3 61 59 62
3 239 238 234
3 55 53 56
3 190 185 188
3 105 111 109
3 195 197 193
3 194 257 192
3 247 246 244
3 12 16 11
3 244 232 156
3 183 179 180
3 39 113 111
3 220 178 221
3 256 255 3
3 112 114 135
3 117 133 134
3 242 240 241
3 23 122 25
3 162 163 232
3 89 94 93
3 144 149 143
3 117 134 131
3 21 20 19
3 12 124 23
3 6 5 2
3 153 152 150
3 225 221 165
3 89 90 87
3 240 234 241
3 4 0 2
3 139 86 88
3 25 119 30
3 211 210 187
3 86 87 88
3 238 237 234
3 203 201 196
3 50 47 48
3 37 36 34
3 3 7 2
3 185 183 187
3 192 185 190
3 250 247 156
3 232 163 156
3 49 41 38
3 110 137 107
3 215 211 216
3 78 77 73
3 85 79 80
3 165 177 164
3 222 220 221
3 89 92 90
3 144 254 250
3 220 219 216
3 128 129 10
3 99 100 101
3 227 226 225
3 178 175 176
3 47 41 48
3 110 136 137
3 53 48 54
3 106 49 39
3 69 64 67
3 60 59 61
3 105 106 111
3 189 207 206
3 112 111 114
3 115 119 118
3 75 74 73
3 254 253 250
3 6 2 7
3 45 41 46
3 166 161 164
3 159 155 163
3 81 82 84
3 107 137 108
3 202 201 203
3 66 65 63
3 39 37 113
3 155 154 151
3 23 25 24
3 122 123 125
3 12 11 10
3 111 112 109
3 178 220 216
3 1 3 2
3 237 236 234
3 25 122 121
3 78 73 68
3 103 98 104
3 156 247 244
3 54 63 59
3 169 167 164
3 181 175 179
3 231 162 232
3 173 170 174
3 35 33 34
3 197 198 193
3 162 231 229
3 44 43 40
3 189 188 187
3 190 191 192
3 151 153 150
3 10 142 258
3 219 218 216
3 206 196 191
3 162 229 165
3 183 182 179
3 184 185 186
3 30 29 24
3 179 178 180
3 236 235 233
3 125 126 122
3 128 130 127
3 104 98 105
3 188 185 187
3 127 126 128
3 71 70 67
3 221 177 165
3 19 16 12
3 27 26 24
3 0 1 2
3 79 78 68
3 68 73 67
3 254 144 3
3 105 107 104
3 231 230 229
3 241 234 232
3 64 65 67
3 60 58 59
3 249 247 250
3 98 106 105
3 119 120 118
3 106 98 66
3 163 155 156
3 88 138 139
3 134 133 114
3 70 69 67
3 103 97 98
3 65 64 63
3 243 241 244
3 9 8 6
3 22 23 24
3 215 214 211
3 165 229 225
3 147 145 148
3 260 259 261
3 259 260 261
3 263 262 265
3 262 263 264
3 266 267 268
3 269 270 271
3 270 272 271
3 273 275 276
3 273 274 275

POINT_DATA 277
COLOR_SCALARS GocadColor 4
0.819608 0.698116 0.549615 1
0.819608 0.698116 0.549615 1
0.819608 0.698116 0.549615 1
0.819608 0.698116 0.549615 1
0.819608 0.698116 0.549615 1
0.819608 0.698116 0.549615 1
0.819608 0.698116 0.549615 1
0.819608 0.698116 0.549615 1
0.819608 0.698116 0.549615 1
0.819608 0.698116 0.549615 1
0.819608 0.698116 0.549615 1
0.819608 0.698116 0.549615 1
0.819608 0.698116 0.549615 1
0.819608 0.698116 0.549615 1
0.819608 0.698116 0.549615 1
0.819608 0.698116 0.549615 1
0.819608 0.698116 0.549615 1
0.819608 0.698116 0.549615 1
0.819608 0.698116 0.549615 1
0.819608 0.698116 0.549615 1
0.819608 0.698116 0.549615 1
0.819608 0.698116 0.549615 1
0.819608 0.698116 0.549615 1
0.819608 0.698116 0.549615 1
0.819608 0.698116 0.549615 1
0.819608 0.698116 0.549615 1
0.819608 0.698116 0.549615 1
0.819608 0.698116 0.549615 1
0.819608 0.698116 0.549615 1
0.819608 0.698116 0.549615 1
0.819608 0.698116 0.549615 1
0.819608 0.698116 0.549615 1
0.819608 0.698116 0.549615 1
0.819608 0.698116 0.549615 1
0.819608 0.698116 0.549615 1
0.819608 0.698116 0.549615 1
0.819608 0.698116 0.549615 1
0.819608 0.698116 0.549615 1
0.819608 0.698116 0.549615 1
0.819608 0.698116 0.549615 1
0.819608 0.698116 0.549615 1
0.819608 0.698116 0.549615 1
0.819608 0.698116 0.549615 1
0.819608 0.698116 0.549615 1
0.819608 0.698116 0.549615 1
0.819608 0.698116 0.549615 1
0.819608 0.698116 0.549615 1
0.819608 0.698116 0.549615 1
0.819608 0.698116 0.549615 1
0.819608 0.698116 0.549615 1
0.819608 0.698116 0.549615 1
0.819608 0.698116 0.549615 1
0.819608 0.698116 0.549615 1
0.819608 0.698116 0.549615 1
0.819608 0.698116 0.549615 1
0.819608 0.698116 0.549615 1
0.819608 0.698116 0.549615 1
0.819608 0.698116 0.549615 1
0.819608 0.698116 0.549615 1
0.819608 0.698116 0.549615 1
0.819608 0.698116 0.549615 1
0.819608 0.698116 0.549615 1
0.819608 0.698116 0.549615 1
0.819608 0.698116 0.549615 1
0.819608 0.698116 0.549615 1
0.819608 0.698116 0.549615 1
0.819608 0.698116 0.549615 1
0.819608 0.698116 0.549615 1
0.819608 0.698116 0.549615 1
0.819608 0.698116 0.549615 1
0.819608 0.698116 0.549615 1
0.819608 0.698116 0.549615 1
0.819608 0.698116 0.549615 1
0.819608 0.698116 0.549615 1
0.819608 0.698116 0.549615 1
0.819608 0.698116 0.549615 1
0.819608 0.698116 0.549615 1
0.819608 0.698116 0.549615 1
0.819608 0.698116 0.549615 1
0.819608 0.698116 0.549615 1
0.819608 0.698116 0.549615 1
0.819608 0.698116 0.549615 1
0.819608 0.698116 0.549615 1
0.819608 0.698116 0.549615 1
0.819608 0.698116 0.549615 1
0.819608 0.698116 0.549615 1
0.819608 0.698116 0.549615 1
0.819608 0.698116 0.549615 1
0.819608 0.698116 0.549615 1
0.819608 0.698116 0.549615 1
0.819608 0.698116 0.549615 1
0.819608 0.698116 0.549615 1
0.819608 0.698116 0.549615 1
0.819608 0.698116 0.549615 1
0.819608 0.698116 0.549615 1
0.819608 0.698116 0.549615 1
0.819608 0.698116 0.549615 1
0.819608 0.698116 0.549615 1
0.819608 0.698116 0.549615 1
0.819608 0.698116 0.549615 1
0.819608 0.698116 0.549615 1
0.819608 0.698116 0.549615 1
0.819608 0.698116 0.549615 1
0.819608 0.698116 0.549615 1
0.819608 0.698116 0.549615 1
0.819608 0.698116 0.549615 1
0.819608 0.698116 0.549615 1
0.819608 0.698116 0.549615 1
0.819608 0.698116 0.549615 1
0.819608 0.698116 0.549615 1
0.819608 0.698116 0.549615 1
0.819608 0.698116 0.549615 1
0.819608 0.698116 0.549615 1
0.819608 0.698116 0.549615 1
0.819608 0.698116 0.549615 1
0.819608 0.698116 0.549615 1
0.819608 0.698116 0.549615 1
0.819608 0.698116 0.549615 1
0.819608 0.698116 0.549615 1
0.819608 0.698116 0.549615 1
0.819608 0.698116 0.549615 1
0.819608 0.698116 0.549615 1
0.819608 0.698116 0.549615 1
0.819608 0.698116 0.549615 1
0.819608 0.698116 0.549615 1
0.819608 0.698116 0.549615 1
0.819608 0.698116 0.549615 1
0.819608 0.698116 0.549615 1
0.819608 0.698116 0.549615 1
0.819608 0.698116 0.549615 1
0.819608 0.698116 0.549615 1
0.819608 0.698116 0.549615 1
0.819608 0.698116 0.549615 1
0.819608 0.698116 0.549615 1
0.819608 0.698116 0.549615 1
0.819608 0.698116 0.549615 1
0.819608 0.698116 0.549615 1
0.819608 0.698116 0.549615 1
0.819608 0.698116 0.549615 1
0.819608 0.698116 0.549615 1
0.819608 0.698116 0.549615 1
0.819608 0.698116 0.549615 1
0.819608 0.698116 0.549615 1
0.819608 0.698116 0.549615 1
0.819608 0.698116 0.549615 1
0.819608 0.698116 0.549615 1
0.819608 0.698116 0.549615 1
0.819608 0.698116 0.549615 1
0.819608 0.698116 0.549615 1
0.819608 0.698116 0.549615 1
0.819608 0.698116 0.549615 1
0.819608 0.698116 0.549615 1
0.819608 0.698116 0.549615 1
0.819608 0.698116 0.549615 1
0.819608 0.698116 0.549615 1
0.819608 0.698116 0.549615 1
0.819608 0.698116 0.549615 1
0.819608 0.698116 0.549615 1
0.819608 0.698116 0.549615 1
0.819608 0.698116 0.549615 1
0.819608 0.698116 0.549615 1
0.819608 0.698116 0.549615 1
0.819608 0.698116 0.549615 1
0.819608 0.698116 0.549615 1
0.819608 0.698116 0.549615 1
0.819608 0.698116 0.549615 1
0.819608 0.698116 0.549615 1
0.819608 0.698116 0.549615 1
0.819608 0.698116 0.549615 1
0.819608 0.698116 0.549615 1
0.819608 0.698116 0.549615 1
0.819608 0.698116 0.549615 1
0.819608 0.698116 0.549615 1
0.819608 0.698116 0.549615 1
0.819608 0.698116 0.549615 1
0.819608 0.698116 0.549615 1
0.819608 0.698116 0.549615 1
0.819608 0.698116 0.549615 1
0.819608 0.698116 0.549615 1
0.819608 0.698116 0.549615 1
0.819608 0.698116 0.549615 1
0.819608 0.698116 0.549615 1
0.819608 0.698116 0.549615 1
0.819608 0.698116 0.549615 1
0.819608 0.698116 0.549615 1
0.819608 0.698116 0.549615 1
0.819608 0.698116 0.549615 1
0.819608 0.698116 0.549615 1
0.819608 0.698116 0.549615 1
0.819608 0.698116 0.549615 1
0.819608 0.698116 0.549615 1
0.819608 0.698116 0.549615 1
0.819608 0.698116 0.549615 1
0.819608 0.698116 0.549615 1
0.819608 0.698116 0.549615 1
0.819608 0.698116 0.549615 1
0.819608 0.698116 0.549615 1
0.819608 0.698116 0.549615 1
0.819608 0.698116 0.549615 1
0.819608 0.698116 0.549615 1
0.819608 0.698116 0.549615 1
0.819608 0.698116 0.549615 1
0.819608 0.698116 0.549615 1
0.819608 0.698116 0.549615 1
0.819608 0.698116 0.549615 1
0.819608 0.698116 0.549615 1
0.819608 0.698116 0.549615 1
0.819608 0.698116 0.549615 1
0.819608 0.698116 0.549615 1
0.819608 0.698116 0.549615 1
0.819608 0.698116 0.549615 1
0.819608 0.698116 0.549615 1
0.819608 0.698116 0.549615 1
0.819608 0.698116 0.549615 1
0.819608 0.698116 0.549615 1
0.819608 0.698116 0.549615 1
0.819608 0.698116 0.549615 1
0.819608 0.698116 0.549615 1
0.819608 0.698116 0.549615 1
0.819608 0.698116 0.549615 1
0.819608 0.698116 0.549615 1
0.819608 0.698116 0.549615 1
0.819608 0.698116 0.549615 1
0.819608 0.698116 0.549615 1
0.819608 0.698116 0.549615 1
0.819608 0.698116 0.549615 1
0.819608 0.698116 0.549615 1
0.819608 0.698116 0.549615 1
0.819608 0.698116 0.549615 1
0.819608 0.698116 0.549615 1
0.819608 0.698116 0.549615 1
0.819608 0.698116 0.549615 1
0.819608 0.698116 0.549615 1
0.819608 0.698116 0.549615 1
0.819608 0.698116 0.549615 1
0.819608 0.698116 0.549615 1
0.819608 0.698116 0.549615 1
0.819608 0.698116 0.549615 1
0.819608 0.698116 0.549615 1
0.819608 0.698116 0.549615 1
0.819608 0.698116 0.549615 1
0.819608 0.698116 0.549615 1
0.819608 0.698116 0.549615 1
0.819608 0.698116 0.549615 1
0.819608 0.698116 0.549615 1
0.819608 0.698116 0.549615 1
0.819608 0.698116 0.549615 1
0.819608 0.698116 0.549615 1
0.819608 0.698116 0.549615 1
0.819608 0.698116 0.549615 1
0.819608 0.698116 0.549615 1
0.819608 0.698116 0.549615 1
0.819608 0.698116 0.549615 1
0.819608 0.698116 0.549615 1
0.819608 0.698116 0.549615 1
0.819608 0.698116 0.549615 1
0.819608 0.698116 0.549615 1
0.819608 0.698116 0.549615 1
0.819608 0.698116 0.549615 1
0.819608 0.698116 0.549615 1
0.819608 0.698116 0.549615 1
0.819608 0.698116 0.549615 1
0.819608 0.698116 0.549615 1
0.819608 0.698116 0.549615 1
0.819608 0.698116 0.549615 1
0.819608 0.698116 0.549615 1
0.819608 0.698116 0.549615 1
0.819608 0.698116 0.549615 1
0.819608 0.698116 0.549615 1
0.819608 0.698116 0.549615 1
0.819608 0.698116 0.549615 1
0.819608 0.698116 0.549615 1
0.819608 0.698116 0.549615 1
0.819608 0.698116 0.549615 1
0.819608 0.698116 0.549615 1
0.819608 0.698116 0.549615 1
0.819608 0.698116 0.549615 1

