# vtk DataFile Version 3.0
Gocad TSurf to VTK
ASCII
DATASET POLYDATA
POINTS 593 float
21555000.000 4563270.000 155.000
21554600.000 4562975.000 133.750
21554900.000 4563092.500 40.000
21554700.000 4562737.500 -190.000
21555250.000 4563080.000 -187.500
21555650.000 4563385.000 -185.000
21555500.000 4562890.000 -530.000
21555125.000 4563405.000 155.000
21555550.000 4563745.000 98.750
21556500.000 4564220.000 -110.000
21555250.000 4563540.000 155.000
21555375.000 4563675.000 155.000
21555500.000 4563810.000 155.000
21556100.000 4564270.000 22.500
21556600.000 4564680.000 85.000
21555550.000 4563937.500 155.000
21555600.000 4564065.000 155.000
21555650.000 4564192.500 155.000
21555700.000 4564320.000 155.000
21556200.000 4564740.000 127.500
21555715.750 4564395.621 157.363
21556750.000 4565070.000 -72.500
21557200.000 4565125.000 -77.500
21556800.000 4565200.000 -125.000
21555953.172 4564777.023 153.726
21557000.000 4565162.500 -101.250
21557025.000 4565445.000 -230.000
21557225.000 4565267.500 -153.750
21556800.000 4565337.500 -177.500
21556800.000 4565612.500 -282.500
21556650.000 4565277.500 -125.000
21555900.000 4564977.500 96.250
21556800.000 4565750.000 -335.000
21556200.000 4565510.000 -125.000
21556875.000 4565655.000 -300.000
21556950.000 4565550.000 -265.000
21556800.000 4565760.000 -335.000
21556775.000 4565890.000 -345.000
21557325.000 4565827.500 -288.750
21557175.000 4565502.500 -226.250
21557400.000 4565990.000 -320.000
21557475.000 4565882.500 -292.500
21557050.000 4566135.000 -347.500
21557475.000 4566432.500 -342.500
21556700.000 4566280.000 -375.000
21556500.000 4566035.000 -305.000
21556775.000 4566390.000 -421.250
21557250.000 4566650.000 -455.000
21556550.000 4566277.500 -361.250
21556700.000 4566425.000 -427.500
21556400.000 4566130.000 -295.000
21556350.000 4565975.000 -252.500
21556600.000 4565940.000 -315.000
21556225.000 4565932.500 -200.000
21556250.000 4565665.000 -167.500
21556050.000 4565735.000 -105.000
21555875.000 4565537.500 -10.000
21555700.000 4565340.000 85.000
21556100.000 4565332.500 -51.250
21555725.000 4565205.000 106.250
21555750.000 4565070.000 127.500
21555775.000 4564935.000 148.750
21555778.531 4564923.258 150.128
21555776.750 4564925.539 150.239
21555827.484 4564848.797 149.725
21555833.703 4564845.750 149.673
21555865.578 4564826.230 150.654
21555939.781 4564785.785 152.830
21556850.000 4566572.500 -493.750
21556925.000 4566610.000 -513.750
21557000.000 4566720.000 -560.000
21557700.000 4567030.000 -350.000
21557150.000 4566880.000 -521.250
21557625.000 4567277.500 -391.250
21557750.000 4567145.000 -342.500
21557300.000 4567040.000 -482.500
21557450.000 4567200.000 -443.750
21557600.000 4567360.000 -405.000
21557800.000 4567260.000 -335.000
21557900.000 4567490.000 -320.000
21558425.000 4567617.500 -166.250
21557650.000 4567475.000 -395.000
21557850.000 4567655.000 -342.500
21558200.000 4567880.000 -256.250
21557700.000 4567590.000 -385.000
21557750.000 4567705.000 -375.000
21557800.000 4567820.000 -365.000
21558075.000 4568097.500 -308.750
21558450.000 4568240.000 -211.250
21559800.000 4568810.000 163.750
21558350.000 4568375.000 -252.500
21558600.000 4568470.000 -187.500
21559500.000 4568850.000 62.500
21558625.000 4568652.500 -196.250
21558750.000 4568700.000 -163.750
21559200.000 4568890.000 -38.750
21558900.000 4568930.000 -140.000
21559200.000 4569080.000 -30.000
21559425.000 4569002.500 43.750
21560100.000 4569450.000 235.000
21560100.000 4569280.000 242.500
21560100.000 4569110.000 250.000
21560100.000 4568940.000 257.500
21560100.000 4568770.000 265.000
21559200.000 4568205.000 22.500
21560100.000 4568677.500 268.750
21560100.000 4568585.000 272.500
21560100.000 4568492.500 276.250
21560100.000 4568400.000 280.000
21560075.000 4568300.000 283.750
21558950.000 4567745.000 -12.500
21560050.000 4568200.000 287.500
21560025.000 4568100.000 291.250
21560000.000 4568000.000 295.000
21559725.000 4567785.000 213.750
21558250.000 4566757.500 -195.000
21560000.000 4567902.500 297.500
21560000.000 4567805.000 300.000
21560000.000 4567707.500 302.500
21560000.000 4567610.000 305.000
21558900.000 4567140.000 -30.000
21559150.000 4567110.000 47.500
21558750.000 4566690.000 -30.000
21559975.000 4567462.500 298.750
21559950.000 4567315.000 292.500
21559925.000 4567167.500 286.250
21559900.000 4567020.000 280.000
21558700.000 4566540.000 -30.000
21559250.000 4566475.000 97.500
21558650.000 4566380.000 -40.000
21559875.000 4566867.500 266.250
21559850.000 4566715.000 252.500
21559525.000 4566442.500 161.250
21558550.000 4566060.000 -60.000
21559825.000 4566562.500 238.750
21559800.000 4566410.000 225.000
21558500.000 4565900.000 -70.000
21559150.000 4565910.000 70.000
21558425.000 4565510.000 -141.250
21559800.000 4566287.500 221.250
21559800.000 4566165.000 217.500
21559800.000 4566042.500 213.750
21559800.000 4565920.000 210.000
21558750.000 4565407.500 -67.500
21559800.000 4565812.500 213.750
21559800.000 4565750.227 215.922
21559784.063 4565700.484 213.176
21559781.391 4565692.102 212.713
21559450.000 4565462.500 127.500
21559744.188 4565575.973 206.300
21557675.000 4564780.000 -337.500
21558200.000 4565290.000 -180.000
21558325.000 4564640.000 -108.750
21559482.453 4565142.762 190.798
21557825.000 4564210.000 -201.250
21558850.000 4564460.000 70.000
21557475.000 4564895.000 -96.250
21557625.000 4565177.500 -75.000
21557000.000 4564040.000 -390.000
21556875.000 4563552.500 -413.750
21558675.000 4564250.000 36.250
21556250.000 4563315.000 -485.000
21556700.000 4563340.000 -445.000
21556350.000 4563055.000 -455.000
21556625.000 4563070.000 -385.000
21556000.000 4563235.000 -426.250
21555875.000 4562785.000 -458.750
21555800.000 4562670.000 -430.000
21556025.000 4562667.500 -322.500
21555650.000 4562780.000 -480.000
21554975.000 4562432.500 -477.500
21555325.000 4562737.500 -512.500
21554800.000 4562280.000 -460.000
21554750.000 4562350.000 -421.250
21555250.000 4562275.000 -307.500
21554800.000 4562105.000 -362.500
21555775.000 4562570.000 -361.250
21555700.000 4562270.000 -155.000
21556250.000 4562665.000 -215.000
21556675.000 4562740.000 -91.250
21557650.000 4563225.000 -92.500
21557700.000 4562935.000 90.000
21557750.000 4563595.000 -152.500
21558800.000 4563850.000 140.000
21558875.000 4563955.000 143.750
21558725.000 4563565.000 170.000
21558700.000 4563470.000 180.000
21558700.000 4563340.000 180.000
21558700.000 4563210.000 180.000
21558700.000 4563022.500 221.250
21558700.000 4563275.000 180.000
21556000.000 4561940.000 -170.000
21556475.000 4562427.500 -71.250
21558700.000 4562960.000 235.000
21558175.000 4562692.500 162.500
21556450.000 4561902.500 -83.750
21558700.000 4562933.625 240.275
21558614.766 4562790.926 248.360
21558575.344 4562724.910 252.100
21558546.391 4562623.527 256.233
21558550.156 4562579.953 257.183
21558495.969 4562453.391 263.263
21557350.000 4561995.000 85.000
21558503.203 4562396.484 264.386
21556900.000 4561770.000 15.000
21558511.141 4562333.898 265.622
21556525.000 4561317.500 0.000
21555925.000 4561232.500 -297.500
21556850.000 4561365.000 15.000
21557500.000 4561785.000 115.000
21556300.000 4561100.000 0.000
21556650.000 4560620.000 -45.000
21556150.000 4561145.000 -175.000
21556050.000 4560800.000 -227.500
21555950.000 4561065.000 -315.000
21555875.000 4560990.000 -297.500
21555750.000 4561230.000 -245.000
21555900.000 4560950.000 -280.000
21555800.000 4560957.500 -297.500
21555750.000 4560942.500 -268.750
21555800.000 4560910.000 -280.000
21555900.000 4560752.500 -245.000
21555750.000 4560700.000 -245.000
21555900.000 4560565.000 -210.000
21556200.000 4560660.000 -175.000
21555750.000 4560525.000 -210.000
21555850.000 4560360.000 -175.000
21555650.000 4560480.000 -230.000
21555525.000 4560625.000 -275.000
21555475.000 4560245.000 -226.250
21555500.000 4560070.000 -195.000
21555450.000 4560420.000 -257.500
21555250.000 4560355.000 -237.500
21555425.000 4560595.000 -288.750
21555000.000 4559920.000 -55.000
21555000.000 4560280.000 -167.500
21555200.000 4559855.000 -132.500
21555000.000 4559785.000 -35.000
21555475.000 4560000.000 -198.750
21555425.000 4559860.000 -206.250
21555600.000 4559975.000 -210.000
21555850.000 4560112.500 -161.250
21555700.000 4559767.500 -196.250
21555950.000 4560147.500 -126.250
21556500.000 4560380.000 -70.000
21556400.000 4560290.000 -70.000
21556450.000 4560560.000 -52.500
21556400.000 4560740.000 -35.000
21557800.000 4561180.000 147.500
21558500.000 4561020.000 265.000
21558565.359 4561878.219 274.804
21558583.813 4561798.340 275.958
21558594.672 4562044.984 268.939
21558604.813 4562102.633 266.911
21558582.813 4562149.043 266.816
21558300.000 4562195.000 235.000
21558560.250 4562196.625 266.718
21558510.000 4562302.625 266.500
21558588.453 4561753.004 276.910
21558588.859 4561637.074 277.430
21558589.328 4561506.633 278.016
21558586.734 4561450.438 277.802
21558583.656 4561383.922 277.549
21558550.000 4561237.500 272.500
21557450.000 4560565.000 112.500
21556700.000 4560210.000 55.000
21558479.828 4560965.535 271.052
21558346.313 4560801.379 272.542
21558341.219 4560795.805 272.463
21558277.484 4560726.145 271.465
21558232.672 4560696.848 271.376
21558164.859 4560565.043 268.522
21558159.766 4560555.145 268.307
21557500.000 4560020.000 195.000
21557829.406 4560182.484 262.778
21556250.000 4559737.500 25.000
21556100.000 4559580.000 15.000
21557275.000 4559842.500 156.250
21556475.000 4559377.500 33.750
21557600.000 4559830.000 237.500
21556825.000 4559487.500 78.750
21557734.641 4559909.941 269.477
21557726.672 4559870.113 270.224
21557761.625 4560044.855 266.947
21557774.016 4560106.770 265.785
21557713.266 4559803.098 271.481
21557685.984 4559666.645 274.040
21557677.063 4559636.004 274.725
21557411.641 4559489.039 286.785
21557275.000 4559417.500 290.000
21557275.000 4559417.500 290.000
21556850.000 4559195.000 300.000
21556300.000 4559030.000 180.000
21556425.000 4558972.500 310.000
21556150.000 4558890.000 250.000
21556000.000 4558750.000 320.000
21556050.000 4558940.000 140.000
[...]
POINT_DATA 593
COLOR_SCALARS GocadColor 4
0.0930037 0.0930037 0.439216 1
0.0930037 0.0930037 0.439216 1
0.0930037 0.0930037 0.439216 1
0.0930037 0.0930037 0.439216 1
0.0930037 0.0930037 0.439216 1
0.0930037 0.0930037 0.439216 1
0.0930037 0.0930037 0.439216 1
0.0930037 0.0930037 0.439216 1
0.0930037 0.0930037 0.439216 1
0.0930037 0.0930037 0.439216 1
0.0930037 0.0930037 0.439216 1
0.0930037 0.0930037 0.439216 1
0.0930037 0.0930037 0.439216 1
0.0930037 0.0930037 0.439216 1
0.0930037 0.0930037 0.439216 1
0.0930037 0.0930037 0.439216 1
0.0930037 0.0930037 0.439216 1
0.0930037 0.0930037 0.439216 1
0.0930037 0.0930037 0.439216 1
0.0930037 0.0930037 0.439216 1
0.0930037 0.0930037 0.439216 1
0.0930037 0.0930037 0.439216 1
0.0930037 0.0930037 0.439216 1
0.0930037 0.0930037 0.439216 1
0.0930037 0.0930037 0.439216 1
0.0930037 0.0930037 0.439216 1
0.0930037 0.0930037 0.439216 1
0.0930037 0.0930037 0.439216 1
0.0930037 0.0930037 0.439216 1
0.0930037 0.0930037 0.439216 1
0.0930037 0.0930037 0.439216 1
0.0930037 0.0930037 0.439216 1
0.0930037 0.0930037 0.439216 1
0.0930037 0.0930037 0.439216 1
0.0930037 0.0930037 0.439216 1
0.0930037 0.0930037 0.439216 1
0.0930037 0.0930037 0.439216 1
0.0930037 0.0930037 0.439216 1
0.0930037 0.0930037 0.439216 1
0.0930037 0.0930037 0.439216 1
0.0930037 0.0930037 0.439216 1
0.0930037 0.0930037 0.439216 1
0.0930037 0.0930037 0.439216 1
0.0930037 0.0930037 0.439216 1
0.0930037 0.0930037 0.439216 1
0.0930037 0.0930037 0.439216 1
0.0930037 0.0930037 0.439216 1
0.0930037 0.0930037 0.439216 1
0.0930037 0.0930037 0.439216 1
0.0930037 0.0930037 0.439216 1
0.0930037 0.0930037 0.439216 1
0.0930037 0.0930037 0.439216 1
0.0930037 0.0930037 0.439216 1
0.0930037 0.0930037 0.439216 1
0.0930037 0.0930037 0.439216 1
0.0930037 0.0930037 0.439216 1
0.0930037 0.0930037 0.439216 1
0.0930037 0.0930037 0.439216 1
0.0930037 0.0930037 0.439216 1
0.0930037 0.0930037 0.439216 1
0.0930037 0.0930037 0.439216 1
0.0930037 0.0930037 0.439216 1
0.0930037 0.0930037 0.439216 1
0.0930037 0.0930037 0.439216 1
0.0930037 0.0930037 0.439216 1
0.0930037 0.0930037 0.439216 1
0.0930037 0.0930037 0.439216 1
0.0930037 0.0930037 0.439216 1
0.0930037 0.0930037 0.439216 1
0.0930037 0.0930037 0.439216 1
0.0930037 0.0930037 0.439216 1
0.0930037 0.0930037 0.439216 1
0.0930037 0.0930037 0.439216 1
0.0930037 0.0930037 0.439216 1
0.0930037 0.0930037 0.439216 1
0.0930037 0.0930037 0.439216 1
0.0930037 0.0930037 0.439216 1
0.0930037 0.0930037 0.439216 1
0.0930037 0.0930037 0.439216 1
0.0930037 0.0930037 0.439216 1
0.0930037 0.0930037 0.439216 1
0.0930037 0.0930037 0.439216 1
0.0930037 0.0930037 0.439216 1
0.0930037 0.0930037 0.439216 1
0.0930037 0.0930037 0.439216 1
0.0930037 0.0930037 0.439216 1
0.0930037 0.0930037 0.439216 1
0.0930037 0.0930037 0.439216 1
0.0930037 0.0930037 0.439216 1
0.0930037 0.0930037 0.439216 1
0.0930037 0.0930037 0.439216 1
0.0930037 0.0930037 0.439216 1
0.0930037 0.0930037 0.439216 1
0.0930037 0.0930037 0.439216 1
0.0930037 0.0930037 0.439216 1
0.0930037 0.0930037 0.439216 1
0.0930037 0.0930037 0.439216 1
0.0930037 0.0930037 0.439216 1
0.0930037 0.0930037 0.439216 1
0.0930037 0.0930037 0.439216 1
0.0930037 0.0930037 0.439216 1
0.0930037 0.0930037 0.439216 1
0.0930037 0.0930037 0.439216 1
0.0930037 0.0930037 0.439216 1
0.0930037 0.0930037 0.439216 1
0.0930037 0.0930037 0.439216 1
0.0930037 0.0930037 0.439216 1
0.0930037 0.0930037 0.439216 1
0.0930037 0.0930037 0.439216 1
0.0930037 0.0930037 0.439216 1
0.0930037 0.0930037 0.439216 1
0.0930037 0.0930037 0.439216 1
0.0930037 0.0930037 0.439216 1
0.0930037 0.0930037 0.439216 1
0.0930037 0.0930037 0.439216 1
0.0930037 0.0930037 0.439216 1
0.0930037 0.0930037 0.439216 1
0.0930037 0.0930037 0.439216 1
0.0930037 0.0930037 0.439216 1
0.0930037 0.0930037 0.439216 1
0.0930037 0.0930037 0.439216 1
0.0930037 0.0930037 0.439216 1
0.0930037 0.0930037 0.439216 1
0.0930037 0.0930037 0.439216 1
0.0930037 0.0930037 0.439216 1
0.0930037 0.0930037 0.439216 1
0.0930037 0.0930037 0.439216 1
0.0930037 0.0930037 0.439216 1
0.0930037 0.0930037 0.439216 1
0.0930037 0.0930037 0.439216 1
0.0930037 0.0930037 0.439216 1
0.0930037 0.0930037 0.439216 1
0.0930037 0.0930037 0.439216 1
0.0930037 0.0930037 0.439216 1
0.0930037 0.0930037 0.439216 1
0.0930037 0.0930037 0.439216 1
0.0930037 0.0930037 0.439216 1
0.0930037 0.0930037 0.439216 1
0.0930037 0.0930037 0.439216 1
0.0930037 0.0930037 0.439216 1
0.0930037 0.0930037 0.439216 1
0.0930037 0.0930037 0.439216 1
0.0930037 0.0930037 0.439216 1
0.0930037 0.0930037 0.439216 1
0.0930037 0.0930037 0.439216 1
0.0930037 0.0930037 0.439216 1
0.0930037 0.0930037 0.439216 1
0.0930037 0.0930037 0.439216 1
0.0930037 0.0930037 0.439216 1
0.0930037 0.0930037 0.439216 1
0.0930037 0.0930037 0.439216 1
0.0930037 0.0930037 0.439216 1
0.0930037 0.0930037 0.439216 1
0.0930037 0.0930037 0.439216 1
0.0930037 0.0930037 0.439216 1
0.0930037 0.0930037 0.439216 1
0.0930037 0.0930037 0.439216 1
0.0930037 0.0930037 0.439216 1
0.0930037 0.0930037 0.439216 1
0.0930037 0.0930037 0.439216 1
0.0930037 0.0930037 0.439216 1
0.0930037 0.0930037 0.439216 1
0.0930037 0.0930037 0.439216 1
0.0930037 0.0930037 0.439216 1
0.0930037 0.0930037 0.439216 1
0.0930037 0.0930037 0.439216 1
0.0930037 0.0930037 0.439216 1
0.0930037 0.0930037 0.439216 1
0.0930037 0.0930037 0.439216 1
0.0930037 0.0930037 0.439216 1
0.0930037 0.0930037 0.439216 1
0.0930037 0.0930037 0.439216 1
0.0930037 0.0930037 0.439216 1
0.0930037 0.0930037 0.439216 1
0.0930037 0.0930037 0.439216 1
0.0930037 0.0930037 0.439216 1
0.0930037 0.0930037 0.439216 1
0.0930037 0.0930037 0.439216 1
0.0930037 0.0930037 0.439216 1
0.0930037 0.0930037 0.439216 1
0.0930037 0.0930037 0.439216 1
0.0930037 0.0930037 0.439216 1
0.0930037 0.0930037 0.439216 1
0.0930037 0.0930037 0.439216 1
0.0930037 0.0930037 0.439216 1
0.0930037 0.0930037 0.439216 1
0.0930037 0.0930037 0.439216 1
0.0930037 0.0930037 0.439216 1
0.0930037 0.0930037 0.439216 1
0.0930037 0.0930037 0.439216 1
0.0930037 0.0930037 0.439216 1
0.0930037 0.0930037 0.439216 1
0.0930037 0.0930037 0.439216 1
0.0930037 0.0930037 0.439216 1
0.0930037 0.0930037 0.439216 1
0.0930037 0.0930037 0.439216 1
0.0930037 0.0930037 0.439216 1
0.0930037 0.0930037 0.439216 1
0.0930037 0.0930037 0.439216 1
0.0930037 0.0930037 0.439216 1
0.0930037 0.0930037 0.439216 1
0.0930037 0.0930037 0.439216 1
0.0930037 0.0930037 0.439216 1
0.0930037 0.0930037 0.439216 1
0.0930037 0.0930037 0.439216 1
0.0930037 0.0930037 0.439216 1
0.0930037 0.0930037 0.439216 1
0.0930037 0.0930037 0.439216 1
0.0930037 0.0930037 0.439216 1
0.0930037 0.0930037 0.439216 1
0.0930037 0.0930037 0.439216 1
0.0930037 0.0930037 0.439216 1
0.0930037 0.0930037 0.439216 1
0.0930037 0.0930037 0.439216 1
0.0930037 0.0930037 0.439216 1
0.0930037 0.0930037 0.439216 1
0.0930037 0.0930037 0.439216 1
0.0930037 0.0930037 0.439216 1
0.0930037 0.0930037 0.439216 1
0.0930037 0.0930037 0.439216 1
0.0930037 0.0930037 0.439216 1
0.0930037 0.0930037 0.439216 1
0.0930037 0.0930037 0.439216 1
0.0930037 0.0930037 0.439216 1
0.0930037 0.0930037 0.439216 1
0.0930037 0.0930037 0.439216 1
0.0930037 0.0930037 0.439216 1
0.0930037 0.0930037 0.439216 1
0.0930037 0.0930037 0.439216 1
0.0930037 0.0930037 0.439216 1
0.0930037 0.0930037 0.439216 1
0.0930037 0.0930037 0.439216 1
0.0930037 0.0930037 0.439216 1
0.0930037 0.0930037 0.439216 1
0.0930037 0.0930037 0.439216 1
0.0930037 0.0930037 0.439216 1
0.0930037 0.0930037 0.439216 1
0.0930037 0.0930037 0.439216 1
0.0930037 0.0930037 0.439216 1
0.0930037 0.0930037 0.439216 1
0.0930037 0.0930037 0.439216 1
0.0930037 0.0930037 0.439216 1
0.0930037 0.0930037 0.439216 1
0.0930037 0.0930037 0.439216 1
0.0930037 0.0930037 0.439216 1
0.0930037 0.0930037 0.439216 1
0.0930037 0.0930037 0.439216 1
0.0930037 0.0930037 0.439216 1
0.0930037 0.0930037 0.439216 1
0.0930037 0.0930037 0.439216 1
0.0930037 0.0930037 0.439216 1
0.0930037 0.0930037 0.439216 1
0.0930037 0.0930037 0.439216 1
0.0930037 0.0930037 0.439216 1
0.0930037 0.0930037 0.439216 1
0.0930037 0.0930037 0.439216 1
0.0930037 0.0930037 0.439216 1
0.0930037 0.0930037 0.439216 1
0.0930037 0.0930037 0.439216 1
0.0930037 0.0930037 0.439216 1
0.0930037 0.0930037 0.439216 1
0.0930037 0.0930037 0.439216 1
0.0930037 0.0930037 0.439216 1
0.0930037 0.0930037 0.439216 1
0.0930037 0.0930037 0.439216 1
0.0930037 0.0930037 0.439216 1
0.0930037 0.0930037 0.439216 1
0.0930037 0.0930037 0.439216 1
0.0930037 0.0930037 0.439216 1
0.0930037 0.0930037 0.439216 1
0.0930037 0.0930037 0.439216 1
0.0930037 0.0930037 0.439216 1
0.0930037 0.0930037 0.439216 1
0.0930037 0.0930037 0.439216 1
0.0930037 0.0930037 0.439216 1
0.0930037 0.0930037 0.439216 1
0.0930037 0.0930037 0.439216 1
0.0930037 0.0930037 0.439216 1
0.0930037 0.0930037 0.439216 1
0.0930037 0.0930037 0.439216 1
0.0930037 0.0930037 0.439216 1
0.0930037 0.0930037 0.439216 1
0.0930037 0.0930037 0.439216 1
0.0930037 0.0930037 0.439216 1
0.0930037 0.0930037 0.439216 1
0.0930037 0.0930037 0.439216 1
0.0930037 0.0930037 0.439216 1
0.0930037 0.0930037 0.439216 1
0.0930037 0.0930037 0.439216 1
0.0930037 0.0930037 0.439216 1
0.0930037 0.0930037 0.439216 1
0.0930037 0.0930037 0.439216 1
0.0930037 0.0930037 0.439216 1
0.0930037 0.0930037 0.439216 1
0.0930037 0.0930037 0.439216 1
0.0930037 0.0930037 0.439216 1
0.0930037 0.0930037 0.439216 1
0.0930037 0.0930037 0.439216 1
0.0930037 0.0930037 0.439216 1
0.0930037 0.0930037 0.439216 1
0.0930037 0.0930037 0.439216 1
0.0930037 0.0930037 0.439216 1
0.0930037 0.0930037 0.439216 1
0.0930037 0.0930037 0.439216 1
0.0930037 0.0930037 0.439216 1
0.0930037 0.0930037 0.439216 1
0.0930037 0.0930037 0.439216 1
0.0930037 0.0930037 0.439216 1
0.0930037 0.0930037 0.439216 1
0.0930037 0.0930037 0.439216 1
0.0930037 0.0930037 0.439216 1
0.0930037 0.0930037 0.439216 1
0.0930037 0.0930037 0.439216 1
0.0930037 0.0930037 0.439216 1
0.0930037 0.0930037 0.439216 1
0.0930037 0.0930037 0.439216 1
0.0930037 0.0930037 0.439216 1
0.0930037 0.0930037 0.439216 1
0.0930037 0.0930037 0.439216 1
0.0930037 0.0930037 0.439216 1
0.0930037 0.0930037 0.439216 1
0.0930037 0.0930037 0.439216 1
0.0930037 0.0930037 0.439216 1
0.0930037 0.0930037 0.439216 1
0.0930037 0.0930037 0.439216 1
0.0930037 0.0930037 0.439216 1
0.0930037 0.0930037 0.439216 1
0.0930037 0.0930037 0.439216 1
0.0930037 0.0930037 0.439216 1
0.0930037 0.0930037 0.439216 1
0.0930037 0.0930037 0.439216 1
0.0930037 0.0930037 0.439216 1
0.0930037 0.0930037 0.439216 1
0.0930037 0.0930037 0.439216 1
0.0930037 0.0930037 0.439216 1
0.0930037 0.0930037 0.439216 1
0.0930037 0.0930037 0.439216 1
0.0930037 0.0930037 0.439216 1
0.0930037 0.0930037 0.439216 1
0.0930037 0.0930037 0.439216 1
0.0930037 0.0930037 0.439216 1
0.0930037 0.0930037 0.439216 1
0.0930037 0.0930037 0.439216 1
0.0930037 0.0930037 0.439216 1
0.0930037 0.0930037 0.439216 1
0.0930037 0.0930037 0.439216 1
0.0930037 0.0930037 0.439216 1
0.0930037 0.0930037 0.439216 1
0.0930037 0.0930037 0.439216 1
0.0930037 0.0930037 0.439216 1
0.0930037 0.0930037 0.439216 1
0.0930037 0.0930037 0.439216 1
0.0930037 0.0930037 0.439216 1
0.0930037 0.0930037 0.439216 1
0.0930037 0.0930037 0.439216 1
0.0930037 0.0930037 0.439216 1
0.0930037 0.0930037 0.439216 1
0.0930037 0.0930037 0.439216 1
0.0930037 0.0930037 0.439216 1
0.0930037 0.0930037 0.439216 1
0.0930037 0.0930037 0.439216 1
0.0930037 0.0930037 0.439216 1
0.0930037 0.0930037 0.439216 1
0.0930037 0.0930037 0.439216 1
0.0930037 0.0930037 0.439216 1
0.0930037 0.0930037 0.439216 1
0.0930037 0.0930037 0.439216 1
0.0930037 0.0930037 0.439216 1
0.0930037 0.0930037 0.439216 1
0.0930037 0.0930037 0.439216 1
0.0930037 0.0930037 0.439216 1
0.0930037 0.0930037 0.439216 1
0.0930037 0.0930037 0.439216 1
0.0930037 0.0930037 0.439216 1
0.0930037 0.0930037 0.439216 1
0.0930037 0.0930037 0.439216 1
0.0930037 0.0930037 0.439216 1
0.0930037 0.0930037 0.439216 1
0.0930037 0.0930037 0.439216 1
0.0930037 0.0930037 0.439216 1
0.0930037 0.0930037 0.439216 1
0.0930037 0.0930037 0.439216 1
0.0930037 0.0930037 0.439216 1
0.0930037 0.0930037 0.439216 1
0.0930037 0.0930037 0.439216 1
0.0930037 0.0930037 0.439216 1
0.0930037 0.0930037 0.439216 1
0.0930037 0.0930037 0.439216 1
0.0930037 0.0930037 0.439216 1
0.0930037 0.0930037 0.439216 1
0.0930037 0.0930037 0.439216 1
0.0930037 0.0930037 0.439216 1
0.0930037 0.0930037 0.439216 1
0.0930037 0.0930037 0.439216 1
0.0930037 0.0930037 0.439216 1
0.0930037 0.0930037 0.439216 1
0.0930037 0.0930037 0.439216 1
0.0930037 0.0930037 0.439216 1
0.0930037 0.0930037 0.439216 1
0.0930037 0.0930037 0.439216 1
0.0930037 0.0930037 0.439216 1
0.0930037 0.0930037 0.439216 1
0.0930037 0.0930037 0.439216 1
0.0930037 0.0930037 0.439216 1
0.0930037 0.0930037 0.439216 1
0.0930037 0.0930037 0.439216 1
0.0930037 0.0930037 0.439216 1
0.0930037 0.0930037 0.439216 1
0.0930037 0.0930037 0.439216 1
0.0930037 0.0930037 0.439216 1
0.0930037 0.0930037 0.439216 1
0.0930037 0.0930037 0.439216 1
0.0930037 0.0930037 0.439216 1
0.0930037 0.0930037 0.439216 1
0.0930037 0.0930037 0.439216 1
0.0930037 0.0930037 0.439216 1
0.0930037 0.0930037 0.439216 1
0.0930037 0.0930037 0.439216 1
0.0930037 0.0930037 0.439216 1
0.0930037 0.0930037 0.439216 1
0.0930037 0.0930037 0.439216 1
0.0930037 0.0930037 0.439216 1
0.0930037 0.0930037 0.439216 1
0.0930037 0.0930037 0.439216 1
0.0930037 0.0930037 0.439216 1
0.0930037 0.0930037 0.439216 1
0.0930037 0.0930037 0.439216 1
0.0930037 0.0930037 0.439216 1
0.0930037 0.0930037 0.439216 1
0.0930037 0.0930037 0.439216 1
0.0930037 0.0930037 0.439216 1
0.0930037 0.0930037 0.439216 1
0.0930037 0.0930037 0.439216 1
0.0930037 0.0930037 0.439216 1
0.0930037 0.0930037 0.439216 1
0.0930037 0.0930037 0.439216 1
0.0930037 0.0930037 0.439216 1
0.0930037 0.0930037 0.439216 1
0.0930037 0.0930037 0.439216 1
0.0930037 0.0930037 0.439216 1
0.0930037 0.0930037 0.439216 1
0.0930037 0.0930037 0.439216 1
0.0930037 0.0930037 0.439216 1
0.0930037 0.0930037 0.439216 1
0.0930037 0.0930037 0.439216 1
0.0930037 0.0930037 0.439216 1
0.0930037 0.0930037 0.439216 1
0.0930037 0.0930037 0.439216 1
0.0930037 0.0930037 0.439216 1
0.0930037 0.0930037 0.439216 1
0.0930037 0.0930037 0.439216 1
0.0930037 0.0930037 0.439216 1
0.0930037 0.0930037 0.439216 1
0.0930037 0.0930037 0.439216 1
0.0930037 0.0930037 0.439216 1
0.0930037 0.0930037 0.439216 1
0.0930037 0.0930037 0.439216 1
0.0930037 0.0930037 0.439216 1
0.0930037 0.0930037 0.439216 1
0.0930037 0.0930037 0.439216 1
0.0930037 0.0930037 0.439216 1
0.0930037 0.0930037 0.439216 1
0.0930037 0.0930037 0.439216 1
0.0930037 0.0930037 0.439216 1
0.0930037 0.0930037 0.439216 1
0.0930037 0.0930037 0.439216 1
0.0930037 0.0930037 0.439216 1
0.0930037 0.0930037 0.439216 1
0.0930037 0.0930037 0.439216 1
0.0930037 0.0930037 0.439216 1
0.0930037 0.0930037 0.439216 1
0.0930037 0.0930037 0.439216 1
0.0930037 0.0930037 0.439216 1
0.0930037 0.0930037 0.439216 1
0.0930037 0.0930037 0.439216 1
0.0930037 0.0930037 0.439216 1
0.0930037 0.0930037 0.439216 1
0.0930037 0.0930037 0.439216 1
0.0930037 0.0930037 0.439216 1
0.0930037 0.0930037 0.439216 1
0.0930037 0.0930037 0.439216 1
0.0930037 0.0930037 0.439216 1
0.0930037 0.0930037 0.439216 1
0.0930037 0.0930037 0.439216 1
0.0930037 0.0930037 0.439216 1
0.0930037 0.0930037 0.439216 1
0.0930037 0.0930037 0.439216 1
0.0930037 0.0930037 0.439216 1
0.0930037 0.0930037 0.439216 1
0.0930037 0.0930037 0.439216 1
0.0930037 0.0930037 0.439216 1
0.0930037 0.0930037 0.439216 1
0.0930037 0.0930037 0.439216 1
0.0930037 0.0930037 0.439216 1
0.0930037 0.0930037 0.439216 1
0.0930037 0.0930037 0.439216 1
0.0930037 0.0930037 0.439216 1
0.0930037 0.0930037 0.439216 1
0.0930037 0.0930037 0.439216 1
0.0930037 0.0930037 0.439216 1
0.0930037 0.0930037 0.439216 1
0.0930037 0.0930037 0.439216 1
0.0930037 0.0930037 0.439216 1
0.0930037 0.0930037 0.439216 1
0.0930037 0.0930037 0.439216 1
0.0930037 0.0930037 0.439216 1
0.0930037 0.0930037 0.439216 1
0.0930037 0.0930037 0.439216 1
0.0930037 0.0930037 0.439216 1
0.0930037 0.0930037 0.439216 1
0.0930037 0.0930037 0.439216 1
0.0930037 0.0930037 0.439216 1
0.0930037 0.0930037 0.439216 1
0.0930037 0.0930037 0.439216 1
0.0930037 0.0930037 0.439216 1
0.0930037 0.0930037 0.439216 1
0.0930037 0.0930037 0.439216 1
0.0930037 0.0930037 0.439216 1
0.0930037 0.0930037 0.439216 1
0.0930037 0.0930037 0.439216 1
0.0930037 0.0930037 0.439216 1
0.0930037 0.0930037 0.439216 1
0.0930037 0.0930037 0.439216 1
0.0930037 0.0930037 0.439216 1
0.0930037 0.0930037 0.439216 1
0.0930037 0.0930037 0.439216 1
0.0930037 0.0930037 0.439216 1
0.0930037 0.0930037 0.439216 1
0.0930037 0.0930037 0.439216 1
0.0930037 0.0930037 0.439216 1
0.0930037 0.0930037 0.439216 1
0.0930037 0.0930037 0.439216 1
0.0930037 0.0930037 0.439216 1
0.0930037 0.0930037 0.439216 1
0.0930037 0.0930037 0.439216 1
0.0930037 0.0930037 0.439216 1
0.0930037 0.0930037 0.439216 1
0.0930037 0.0930037 0.439216 1
0.0930037 0.0930037 0.439216 1
0.0930037 0.0930037 0.439216 1
0.0930037 0.0930037 0.439216 1
0.0930037 0.0930037 0.439216 1
0.0930037 0.0930037 0.439216 1
0.0930037 0.0930037 0.439216 1
0.0930037 0.0930037 0.439216 1
0.0930037 0.0930037 0.439216 1
0.0930037 0.0930037 0.439216 1
0.0930037 0.0930037 0.439216 1
0.0930037 0.0930037 0.439216 1
0.0930037 0.0930037 0.439216 1
0.0930037 0.0930037 0.439216 1
0.0930037 0.0930037 0.439216 1
0.0930037 0.0930037 0.439216 1
0.0930037 0.0930037 0.439216 1
0.0930037 0.0930037 0.439216 1
0.0930037 0.0930037 0.439216 1
0.0930037 0.0930037 0.439216 1
0.0930037 0.0930037 0.439216 1
0.0930037 0.0930037 0.439216 1
0.0930037 0.0930037 0.439216 1
0.0930037 0.0930037 0.439216 1
0.0930037 0.0930037 0.439216 1
0.0930037 0.0930037 0.439216 1
0.0930037 0.0930037 0.439216 1
0.0930037 0.0930037 0.439216 1
0.0930037 0.0930037 0.439216 1
0.0930037 0.0930037 0.439216 1
0.0930037 0.0930037 0.439216 1
0.0930037 0.0930037 0.439216 1
0.0930037 0.0930037 0.439216 1
0.0930037 0.0930037 0.439216 1
0.0930037 0.0930037 0.439216 1
0.0930037 0.0930037 0.439216 1
0.0930037 0.0930037 0.439216 1
0.0930037 0.0930037 0.439216 1
0.0930037 0.0930037 0.439216 1
0.0930037 0.0930037 0.439216 1
0.0930037 0.0930037 0.439216 1
0.0930037 0.0930037 0.439216 1
0.0930037 0.0930037 0.439216 1
0.0930037 0.0930037 0.439216 1
0.0930037 0.0930037 0.439216 1
0.0930037 0.0930037 0.439216 1
0.0930037 0.0930037 0.439216 1
0.0930037 0.0930037 0.439216 1
0.0930037 0.0930037 0.439216 1
0.0930037 0.0930037 0.439216 1
0.0930037 0.0930037 0.439216 1
0.0930037 0.0930037 0.439216 1
0.0930037 0.0930037 0.439216 1
0.0930037 0.0930037 0.439216 1
0.0930037 0.0930037 0.439216 1
0.0930037 0.0930037 0.439216 1

