# vtk DataFile Version 3.0
Gocad TSurf to VTK
ASCII
DATASET POLYDATA
POINTS 240 float
21582200.000 4553450.000 125.000
21582000.000 4553452.500 156.250
21582150.000 4553692.500 190.000
21581900.000 4553615.000 210.000
21582400.000 4553770.000 170.000
21582100.000 4553290.000 125.000
21581925.000 4553332.500 156.250
21582225.000 4553230.000 97.500
21582400.000 4553250.000 70.000
21582025.000 4553057.500 183.750
21582250.000 4553050.000 175.000
21581900.000 4553140.000 170.000
21581950.000 4552907.500 266.250
21582100.000 4552875.000 252.500
21581800.000 4552940.000 280.000
21581750.000 4553165.000 215.000
21581950.000 4552685.000 432.500
21581500.000 4552570.000 585.000
21582025.000 4552557.500 508.750
21581650.000 4552977.500 321.250
21581400.000 4552657.500 571.250
21581600.000 4553190.000 260.000
21581425.000 4553165.000 332.500
21581650.000 4553300.000 210.000
21581800.000 4553455.000 187.500
21581525.000 4553380.000 230.000
21581600.000 4553457.500 218.750
21581400.000 4553460.000 250.000
21581300.000 4553240.000 350.000
21581650.000 4553537.500 230.000
21581200.000 4553090.000 445.000
21581200.000 4553485.000 230.000
21581125.000 4553320.000 305.000
21581050.000 4553207.500 376.250
21581000.000 4553510.000 210.000
21580950.000 4553400.000 260.000
21580800.000 4553535.000 190.000
21580600.000 4553560.000 170.000
21580400.000 4553170.000 505.000
21580800.000 4553130.000 475.000
21580400.000 4553602.500 263.750
21580225.000 4553270.000 546.250
21580120.898 4553016.492 727.285
21580200.000 4553645.000 357.500
21580100.000 4553450.000 525.000
21580050.000 4553370.000 587.500
21580000.000 4553687.500 451.250
21579950.000 4553590.000 535.000
21579800.000 4553730.000 545.000
21579875.000 4553470.000 628.750
21579700.000 4553570.000 670.000
21579825.000 4553390.000 695.000
21579950.000 4553210.000 720.000
21579680.711 4553370.762 778.368
21579695.156 4553352.988 779.760
21579633.047 4553429.398 773.776
21579776.805 4553288.789 769.704
21579864.820 4553219.582 758.863
21579930.117 4553168.242 750.821
21579987.297 4553123.281 743.778
21580088.680 4553042.145 731.260
21580243.648 4552919.840 712.163
21580485.508 4552894.414 685.934
21580650.000 4552920.000 637.500
21580500.289 4552892.730 684.328
21580568.742 4552870.793 686.641
21580618.992 4552868.844 678.580
21580668.609 4552868.520 670.373
21580700.523 4552868.313 665.092
21580701.914 4552868.082 665.016
21581200.000 4552855.000 543.750
21581000.000 4553110.000 460.000
21581072.180 4552776.180 640.146
21581200.000 4552707.125 626.160
21581300.000 4552755.000 557.500
21581275.000 4552960.000 480.000
21581247.156 4552681.023 620.909
21581336.398 4552633.078 611.183
21581369.750 4552615.152 607.547
21581500.000 4552560.000 585.000
21581458.109 4552567.680 597.916
21581458.508 4552566.914 597.793
21581601.641 4552537.977 585.000
21581608.500 4552542.875 585.000
21581601.641 4552537.977 585.000
21581631.703 4552541.016 582.470
21581848.711 4552508.531 568.492
21581973.977 4552492.867 560.627
21582070.094 4552480.848 554.592
21582400.000 4552810.000 225.000
21582128.797 4552466.477 550.443
21582207.953 4552436.168 544.131
21582275.000 4552440.000 518.750
21582600.000 4552640.000 272.500
21582254.742 4552411.996 539.988
21582290.492 4552413.148 538.113
21582308.570 4552408.105 536.795
21582625.000 4552460.000 386.250
21582541.523 4552343.137 519.810
21582577.211 4552333.180 517.208
21582612.289 4552322.754 515.236
21582800.000 4552470.000 320.000
21582700.000 4552555.000 296.250
21582680.367 4552302.516 511.409
21582722.867 4552252.664 506.688
21582850.000 4552317.500 368.750
21583175.000 4552252.500 173.750
21582791.836 4552095.742 494.264
21582916.000 4552004.906 483.906
21582950.000 4552012.500 466.250
21582939.789 4551998.203 482.591
21582964.000 4551969.797 479.901
21583300.000 4552180.000 125.000
21582997.547 4551933.109 476.342
21583023.523 4551885.090 484.421
21583027.148 4551873.801 486.384
21583300.000 4552012.500 198.750
21583375.000 4552082.500 115.000
21583032.086 4551858.395 489.062
21583300.000 4551845.000 272.500
21583525.000 4551887.500 95.000
21583050.469 4551801.125 499.019
21583150.000 4551685.000 467.500
21583300.000 4551677.500 346.250
21583011.383 4551781.367 503.611
21583022.656 4551703.531 492.337
21583115.109 4551639.023 468.225
21582953.242 4551751.973 510.443
21582953.242 4551751.973 510.443
21583207.555 4551574.512 444.112
21583225.000 4551597.500 443.750
21582953.242 4551751.973 510.443
21583300.000 4551510.000 420.000
21583600.000 4551790.000 85.000
21583625.000 4551617.500 190.000
21583600.000 4551947.500 40.000
21583600.000 4552105.000 -5.000
21583900.000 4552080.000 -225.000
21583825.000 4552165.000 -192.500
21584000.000 4551800.000 -77.500
21584150.000 4551930.000 -195.000
21583725.000 4551722.500 81.250
21583975.000 4551587.500 73.750
21583650.000 4551445.000 295.000
21583400.000 4551407.500 441.250
21583500.000 4551305.000 462.500
21583700.000 4551100.000 505.000
21583500.000 4551300.000 462.500
21583600.000 4551195.000 483.750
21583700.000 4551090.000 505.000
21584100.000 4551520.000 70.000
21584400.000 4551780.000 -165.000
21584275.000 4551855.000 -180.000
21584350.000 4551917.500 -217.500
21584600.000 4552070.000 -320.000
21584500.000 4552135.000 -333.750
21584300.000 4552055.000 -270.000
21584550.000 4552305.000 -375.000
21584400.000 4552200.000 -347.500
21584900.000 4552390.000 -365.000
21584800.000 4552427.500 -381.250
21584500.000 4552540.000 -430.000
21584850.000 4552620.000 -397.500
21585200.000 4552650.000 -390.000
21585100.000 4552700.000 -400.000
21585000.000 4552750.000 -410.000
21585150.000 4552742.500 -390.000
21585100.000 4552835.000 -390.000
21585300.000 4552907.500 -360.000
21585200.000 4552945.000 -370.000
21585400.000 4552870.000 -350.000
21585100.000 4552982.500 -380.000
21585050.000 4552927.500 -390.000
21585000.000 4553020.000 -390.000
21584800.000 4552850.000 -430.000
21584850.000 4553040.000 -358.750
21584700.000 4552912.500 -388.750
21584475.000 4552680.000 -388.750
21584700.000 4553060.000 -327.500
21584600.000 4552975.000 -347.500
21584450.000 4552820.000 -347.500
21584550.000 4553080.000 -296.250
21584500.000 4553037.500 -306.250
21584425.000 4552960.000 -306.250
21584400.000 4553100.000 -265.000
21584200.000 4552880.000 -280.000
21584075.000 4552997.500 -262.500
21583850.000 4552832.500 -240.000
21584250.000 4553185.000 -243.750
21583950.000 4553115.000 -245.000
21584283.328 4553222.816 -267.593
21584166.648 4553345.633 -270.186
21584100.000 4553270.000 -222.500
21584049.977 4553468.445 -272.779
21583996.727 4553413.473 -249.894
21583900.000 4553300.000 -205.000
21583933.305 4553591.262 -275.372
21583862.297 4553517.965 -244.858
21583749.977 4553625.945 -230.279
21583696.727 4553570.973 -207.394
21583566.648 4553660.633 -185.186
21583800.000 4553440.000 -180.000
21583825.000 4553232.500 -227.500
21583800.000 4553005.000 -230.000
21583525.000 4552930.000 -178.750
21583650.000 4552840.000 -202.500
21583900.000 4552660.000 -250.000
21583500.000 4552720.000 -125.000
21583200.000 4553235.000 -140.000
21583100.000 4552750.000 40.000
21583450.000 4553540.000 -152.500
21583100.000 4553342.500 -132.500
21583531.148 4553623.984 -169.929
21583383.328 4553695.316 -140.093
21583200.000 4553730.000 -95.000
21583000.000 4553740.000 -28.750
21582800.000 4553750.000 37.500
21582700.000 4553610.000 22.500
21582700.000 4553365.000 -21.250
21582600.000 4553760.000 103.750
21582600.000 4553500.000 42.500
21582600.000 4553050.000 15.000
21582875.000 4553110.000 -53.750
21582850.000 4552900.000 27.500
21582650.000 4552905.000 91.250
21582700.000 4552760.000 167.500
21583200.000 4552465.000 82.500
21583350.000 4552585.000 -27.500
21583250.000 4552322.500 103.750
21583475.000 4552502.500 -61.250
21583600.000 4552262.500 -50.000
21583900.000 4552370.000 -237.500
21584300.000 4552265.000 -361.250
21584200.000 4552467.500 -351.250
21584425.000 4552625.000 -392.500
21584200.000 4552605.000 -327.500
21584350.000 4552710.000 -355.000
21584200.000 4552742.500 -303.750
21583975.000 4552577.500 -281.250
21584050.000 4552495.000 -312.500

POLYGONS 377 1508
3 100 99 97
3 132 134 144
3 58 57 52
3 239 235 233
3 86 85 18
3 234 233 235
3 17 79 20
3 195 192 189
3 148 146 149
3 101 102 225
3 90 88 89
3 34 31 32
3 122 123 130
3 23 25 26
3 153 151 152
3 10 13 9
3 233 161 232
3 107 104 105
3 51 45 52
3 14 17 19
3 27 28 31
3 9 11 5
3 177 161 234
3 194 192 195
3 54 53 51
3 194 193 192
3 159 160 162
3 33 39 35
3 155 158 157
3 87 86 18
3 144 143 145
3 94 91 92
3 205 187 206
3 82 79 17
3 73 70 74
3 110 108 109
3 218 221 8
3 83 17 18
3 98 96 97
3 133 137 139
3 28 27 22
3 201 195 202
3 106 105 101
3 221 89 10
3 180 236 185
3 18 16 10
3 41 45 44
3 89 224 93
3 228 226 227
3 168 170 163
3 226 228 106
3 12 14 11
3 0 5 1
3 179 176 180
3 190 184 188
3 166 163 164
3 154 155 157
3 40 37 38
3 57 51 52
3 0 220 8
3 203 204 202
3 231 239 233
3 164 163 162
3 104 101 105
3 42 60 41
3 216 215 211
3 118 115 116
3 150 146 143
3 33 30 71
3 153 154 151
3 14 12 16
3 5 11 6
3 112 106 228
3 156 140 137
3 153 152 140
3 95 94 92
3 161 174 162
3 76 73 74
3 184 185 186
3 15 23 24
3 132 133 134
3 77 76 74
3 176 177 180
3 168 163 166
3 223 224 221
3 1 24 3
3 32 28 33
3 36 34 35
3 189 188 186
3 185 187 186
3 62 61 38
3 63 39 71
3 46 43 44
3 22 21 19
3 186 203 189
3 217 218 220
3 178 179 181
3 40 38 41
3 1 6 24
3 196 197 198
3 173 174 175
3 91 89 92
3 69 68 63
3 99 98 97
3 213 212 210
3 171 167 172
3 132 129 130
3 135 133 120
3 92 89 93
3 4 219 220
3 185 206 187
3 112 228 229
3 72 69 70
3 207 227 209
3 151 150 142
3 204 207 208
3 85 83 18
3 222 223 221
3 21 23 15
3 115 114 112
3 218 217 211
3 198 199 200
3 199 201 202
3 62 38 63
3 4 0 2
3 197 199 198
3 185 184 183
3 12 13 16
3 163 159 162
3 8 10 7
3 11 14 15
3 97 93 102
3 143 146 145
3 123 132 130
3 209 222 208
3 7 5 0
3 41 59 52
3 16 18 17
3 236 180 177
3 38 39 63
3 25 21 22
3 114 113 112
3 216 217 219
3 13 12 9
3 210 212 199
3 174 161 177
3 162 160 161
3 202 195 189
3 125 122 126
3 115 112 116
3 19 20 75
3 117 230 136
3 65 64 63
3 166 164 167
3 186 187 203
3 238 237 235
3 37 36 35
3 124 121 122
3 201 197 195
3 236 234 235
3 174 165 162
3 3 24 29
3 30 28 22
3 206 238 231
3 14 19 21
3 96 95 92
3 145 147 144
3 43 40 41
3 126 122 130
3 210 202 208
3 140 152 139
3 205 204 203
3 137 133 135
3 191 190 188
3 46 44 47
3 197 194 195
3 109 108 105
3 171 172 173
3 215 214 211
3 21 25 23
3 53 55 50
3 134 143 144
3 137 138 231
3 221 10 8
3 161 160 157
3 140 139 137
3 122 121 119
3 153 140 156
3 6 15 24
3 209 101 225
3 189 203 202
3 28 30 33
3 183 180 185
3 31 28 32
3 224 225 93
3 101 97 102
3 24 26 29
3 229 227 207
3 117 136 120
3 214 210 211
3 223 225 224
3 176 174 177
3 161 157 232
3 210 208 211
3 128 129 131
3 197 201 199
3 226 106 101
3 233 232 231
3 238 239 231
3 192 191 188
3 138 135 136
3 59 58 52
3 234 161 233
3 167 165 172
3 225 223 222
3 116 117 120
3 206 237 238
3 219 217 220
3 173 172 174
3 136 135 120
3 67 66 63
3 7 10 9
3 211 208 222
3 136 230 138
3 12 11 9
3 19 17 20
3 103 100 101
3 205 203 187
3 91 90 89
3 16 13 10
3 49 50 48
3 126 128 125
3 38 42 41
3 184 181 182
3 222 218 211
3 112 230 117
3 38 37 35
3 33 71 39
3 169 166 167
3 82 84 79
3 111 109 112
3 27 25 22
3 157 158 232
3 165 164 162
3 57 56 51
3 73 72 70
3 26 27 29
3 171 169 167
3 202 204 208
3 17 14 16
3 193 191 192
3 199 212 200
3 46 47 48
3 71 70 63
3 30 75 70
3 120 133 123
3 80 78 79
3 188 184 186
3 229 207 230
3 194 196 193
3 32 33 35
3 49 45 51
3 169 168 166
3 22 19 75
3 39 38 35
3 207 205 206
3 122 119 123
3 69 63 70
3 56 54 51
3 61 42 38
3 182 179 183
3 156 155 153
3 88 87 18
3 138 137 135
3 89 221 224
3 0 1 2
3 197 196 194
3 23 26 24
3 20 74 75
3 207 206 230
3 78 20 79
3 78 74 20
3 156 137 232
3 236 177 234
3 210 199 202
3 112 109 106
3 232 158 156
3 100 97 101
3 93 97 92
3 141 133 139
3 2 1 3
3 125 124 122
3 44 45 47
3 207 209 208
3 141 134 133
3 181 179 182
3 184 182 183
3 159 154 157
3 142 150 143
3 101 209 226
3 130 129 126
3 112 117 116
3 231 138 230
3 178 176 179
3 35 34 32
3 238 235 239
3 200 212 213
3 106 109 105
3 78 77 74
3 83 82 17
3 96 92 97
3 0 4 220
3 112 229 230
3 236 237 185
3 102 93 225
3 175 174 176
3 74 70 75
3 44 43 41
3 75 30 22
3 222 221 218
3 45 49 47
3 66 65 63
3 120 123 119
3 206 185 237
3 5 6 1
3 108 107 105
3 119 116 120
3 179 180 183
3 143 134 141
3 119 118 116
3 104 103 101
3 68 67 63
3 175 176 178
3 89 18 10
3 121 118 119
3 60 59 41
3 232 137 231
3 229 228 227
3 25 27 26
3 206 231 230
3 217 216 211
3 53 50 51
3 123 133 132
3 128 126 129
3 49 51 50
3 214 213 210
3 113 111 112
3 9 5 7
3 88 18 89
3 111 110 109
3 192 188 189
3 80 79 81
3 152 151 142
3 142 143 141
3 148 147 145
3 141 139 142
3 8 7 0
3 164 165 167
3 227 226 209
3 127 124 125
3 236 235 237
3 47 49 48
3 160 159 157
3 64 62 63
3 158 155 156
3 209 225 222
3 172 165 174
3 146 148 145
3 139 152 142
3 15 14 21
3 128 127 125
3 155 154 153
3 6 11 15
3 45 41 52
3 71 30 70
3 204 205 207
3 220 218 8

POINT_DATA 240
COLOR_SCALARS GocadColor 4
1 0.843137 0 1
1 0.843137 0 1
1 0.843137 0 1
1 0.843137 0 1
1 0.843137 0 1
1 0.843137 0 1
1 0.843137 0 1
1 0.843137 0 1
1 0.843137 0 1
1 0.843137 0 1
1 0.843137 0 1
1 0.843137 0 1
1 0.843137 0 1
1 0.843137 0 1
1 0.843137 0 1
1 0.843137 0 1
1 0.843137 0 1
1 0.843137 0 1
1 0.843137 0 1
1 0.843137 0 1
1 0.843137 0 1
1 0.843137 0 1
1 0.843137 0 1
1 0.843137 0 1
1 0.843137 0 1
1 0.843137 0 1
1 0.843137 0 1
1 0.843137 0 1
1 0.843137 0 1
1 0.843137 0 1
1 0.843137 0 1
1 0.843137 0 1
1 0.843137 0 1
1 0.843137 0 1
1 0.843137 0 1
1 0.843137 0 1
1 0.843137 0 1
1 0.843137 0 1
1 0.843137 0 1
1 0.843137 0 1
1 0.843137 0 1
1 0.843137 0 1
1 0.843137 0 1
1 0.843137 0 1
1 0.843137 0 1
1 0.843137 0 1
1 0.843137 0 1
1 0.843137 0 1
1 0.843137 0 1
1 0.843137 0 1
1 0.843137 0 1
1 0.843137 0 1
1 0.843137 0 1
1 0.843137 0 1
1 0.843137 0 1
1 0.843137 0 1
1 0.843137 0 1
1 0.843137 0 1
1 0.843137 0 1
1 0.843137 0 1
1 0.843137 0 1
1 0.843137 0 1
1 0.843137 0 1
1 0.843137 0 1
1 0.843137 0 1
1 0.843137 0 1
1 0.843137 0 1
1 0.843137 0 1
1 0.843137 0 1
1 0.843137 0 1
1 0.843137 0 1
1 0.843137 0 1
1 0.843137 0 1
1 0.843137 0 1
1 0.843137 0 1
1 0.843137 0 1
1 0.843137 0 1
1 0.843137 0 1
1 0.843137 0 1
1 0.843137 0 1
1 0.843137 0 1
1 0.843137 0 1
1 0.843137 0 1
1 0.843137 0 1
1 0.843137 0 1
1 0.843137 0 1
1 0.843137 0 1
1 0.843137 0 1
1 0.843137 0 1
1 0.843137 0 1
1 0.843137 0 1
1 0.843137 0 1
1 0.843137 0 1
1 0.843137 0 1
1 0.843137 0 1
1 0.843137 0 1
1 0.843137 0 1
1 0.843137 0 1
1 0.843137 0 1
1 0.843137 0 1
1 0.843137 0 1
1 0.843137 0 1
1 0.843137 0 1
1 0.843137 0 1
1 0.843137 0 1
1 0.843137 0 1
1 0.843137 0 1
1 0.843137 0 1
1 0.843137 0 1
1 0.843137 0 1
1 0.843137 0 1
1 0.843137 0 1
1 0.843137 0 1
1 0.843137 0 1
1 0.843137 0 1
1 0.843137 0 1
1 0.843137 0 1
1 0.843137 0 1
1 0.843137 0 1
1 0.843137 0 1
1 0.843137 0 1
1 0.843137 0 1
1 0.843137 0 1
1 0.843137 0 1
1 0.843137 0 1
1 0.843137 0 1
1 0.843137 0 1
1 0.843137 0 1
1 0.843137 0 1
1 0.843137 0 1
1 0.843137 0 1
1 0.843137 0 1
1 0.843137 0 1
1 0.843137 0 1
1 0.843137 0 1
1 0.843137 0 1
1 0.843137 0 1
1 0.843137 0 1
1 0.843137 0 1
1 0.843137 0 1
1 0.843137 0 1
1 0.843137 0 1
1 0.843137 0 1
1 0.843137 0 1
1 0.843137 0 1
1 0.843137 0 1
1 0.843137 0 1
1 0.843137 0 1
1 0.843137 0 1
1 0.843137 0 1
1 0.843137 0 1
1 0.843137 0 1
1 0.843137 0 1
1 0.843137 0 1
1 0.843137 0 1
1 0.843137 0 1
1 0.843137 0 1
1 0.843137 0 1
1 0.843137 0 1
1 0.843137 0 1
1 0.843137 0 1
1 0.843137 0 1
1 0.843137 0 1
1 0.843137 0 1
1 0.843137 0 1
1 0.843137 0 1
1 0.843137 0 1
1 0.843137 0 1
1 0.843137 0 1
1 0.843137 0 1
1 0.843137 0 1
1 0.843137 0 1
1 0.843137 0 1
1 0.843137 0 1
1 0.843137 0 1
1 0.843137 0 1
1 0.843137 0 1
1 0.843137 0 1
1 0.843137 0 1
1 0.843137 0 1
1 0.843137 0 1
1 0.843137 0 1
1 0.843137 0 1
1 0.843137 0 1
1 0.843137 0 1
1 0.843137 0 1
1 0.843137 0 1
1 0.843137 0 1
1 0.843137 0 1
1 0.843137 0 1
1 0.843137 0 1
1 0.843137 0 1
1 0.843137 0 1
1 0.843137 0 1
1 0.843137 0 1
1 0.843137 0 1
1 0.843137 0 1
1 0.843137 0 1
1 0.843137 0 1
1 0.843137 0 1
1 0.843137 0 1
1 0.843137 0 1
1 0.843137 0 1
1 0.843137 0 1
1 0.843137 0 1
1 0.843137 0 1
1 0.843137 0 1
1 0.843137 0 1
1 0.843137 0 1
1 0.843137 0 1
1 0.843137 0 1
1 0.843137 0 1
1 0.843137 0 1
1 0.843137 0 1
1 0.843137 0 1
1 0.843137 0 1
1 0.843137 0 1
1 0.843137 0 1
1 0.843137 0 1
1 0.843137 0 1
1 0.843137 0 1
1 0.843137 0 1
1 0.843137 0 1
1 0.843137 0 1
1 0.843137 0 1
1 0.843137 0 1
1 0.843137 0 1
1 0.843137 0 1
1 0.843137 0 1
1 0.843137 0 1
1 0.843137 0 1
1 0.843137 0 1
1 0.843137 0 1
1 0.843137 0 1
1 0.843137 0 1
1 0.843137 0 1
1 0.843137 0 1
1 0.843137 0 1
1 0.843137 0 1
1 0.843137 0 1

