# vtk DataFile Version 3.0
Gocad TSurf to VTK
ASCII
DATASET POLYDATA
POINTS 927 float
21597362.500 4564448.750 -2500.625
21597425.000 4564532.500 -2568.750
21597525.000 4564447.500 -2516.250
21597537.500 4564573.750 -2610.625
21597525.000 4564435.000 -2508.750
21597275.000 4564531.250 -2536.875
21597200.000 4564450.000 -2485.000
21597387.500 4564693.750 -2640.625
21597300.000 4564905.000 -2747.500
21597875.000 4564697.500 -2736.250
21597900.000 4565170.000 -2911.250
21597850.000 4564445.000 -2547.500
21597687.500 4564446.250 -2531.875
21598175.000 4564442.500 -2578.750
21598175.000 4564405.000 -2556.250
21598100.000 4564780.000 -2820.000
21598575.000 4564410.000 -2581.875
21598587.500 4564930.000 -2828.750
21598500.000 4564390.000 -2580.000
21598337.500 4564397.500 -2568.125
21598612.500 4564377.500 -2560.625
21598650.000 4564467.500 -2606.250
21598725.000 4564365.000 -2541.250
21598837.500 4564352.500 -2521.875
21598950.000 4564340.000 -2502.500
21599062.500 4564327.500 -2483.125
21599175.000 4564582.500 -2600.625
21599175.000 4564315.000 -2463.750
21599287.500 4564302.500 -2444.375
21599400.000 4564290.000 -2425.000
21599437.500 4564355.000 -2451.875
21599512.500 4564287.500 -2382.500
21599400.000 4564680.000 -2617.500
21599112.500 4564633.750 -2646.250
21599512.500 4564485.000 -2505.625
21599625.000 4564285.000 -2340.000
21599550.000 4564745.000 -2628.750
21599625.000 4564680.000 -2586.250
21599187.500 4565136.250 -2953.750
21598825.000 4565082.500 -2914.375
21599700.000 4564810.000 -2640.000
21599700.000 4564975.000 -2667.500
21599187.500 4565305.000 -2997.500
21600200.000 4564803.750 -2446.250
21600125.000 4565232.500 -2492.500
21600300.000 4564270.000 -2085.000
21600325.000 4564336.250 -2115.625
21600187.500 4564272.500 -2127.500
21600075.000 4564275.000 -2170.000
21599962.500 4564277.500 -2212.500
21599850.000 4564280.000 -2255.000
21599737.500 4564282.500 -2297.500
21600475.000 4564733.750 -2299.375
21600375.000 4564295.000 -2082.500
21600450.000 4564320.000 -2080.000
21600525.000 4564345.000 -2077.500
21600600.000 4564370.000 -2075.000
21600675.000 4564395.000 -2072.500
21600750.000 4564420.000 -2070.000
21600825.000 4564445.000 -2067.500
21600500.000 4564800.000 -2330.000
21600900.000 4564470.000 -2065.000
21600500.000 4564998.750 -2309.375
21600375.000 4565297.500 -2347.500
21600800.000 4564685.000 -2117.500
21600650.000 4565007.500 -2196.250
21600975.000 4564483.750 -2007.500
21601050.000 4564497.500 -1950.000
21601125.000 4564511.250 -1892.500
21601200.000 4564525.000 -1835.000
21601275.000 4564538.750 -1777.500
21601350.000 4564552.500 -1720.000
21600550.000 4565222.500 -2248.750
21600500.000 4565131.250 -2295.625
21601425.000 4564566.250 -1662.500
21601500.000 4564580.000 -1605.000
21600500.000 4565330.000 -2275.000
21600487.500 4565418.750 -2316.875
21600500.000 4565263.750 -2281.875
21600437.500 4565313.750 -2311.250
21600400.000 4565347.500 -2334.375
21599525.000 4566190.000 -2863.750
21599437.500 4566117.500 -2881.250
21600150.000 4566090.000 -2682.500
21599712.500 4566366.250 -2865.625
21600900.000 4566045.000 -2135.000
21601325.000 4565217.500 -1990.000
21600400.000 4566617.500 -2413.125
21600087.500 4566550.000 -2672.500
21601475.000 4566076.250 -1658.125
21600400.000 4566700.000 -2385.000
21601575.000 4565288.750 -1865.625
21601600.000 4565180.000 -1895.000
21601675.000 4565405.000 -1707.500
21601775.000 4565705.000 -1457.500
21601675.000 4565305.000 -1756.250
21601637.500 4565242.500 -1825.625
21601712.500 4565367.500 -1686.875
21601787.500 4565315.000 -1692.500
21601750.000 4565430.000 -1617.500
21601787.500 4565492.500 -1548.125
21601912.500 4565405.000 -1557.500
21601825.000 4565555.000 -1478.750
21602150.000 4565135.000 -1402.500
21602137.500 4565236.250 -1390.625
21602162.500 4565033.750 -1414.375
21602187.500 4564831.250 -1438.125
21602200.000 4565125.000 -1402.500
21602200.000 4565223.750 -1390.625
21602200.000 4565026.250 -1414.375
21602200.000 4564927.500 -1426.250
21602200.000 4564828.750 -1438.125
21602200.000 4564730.000 -1450.000
21602112.500 4564711.250 -1469.375
21601662.500 4565225.000 -1827.500
21601575.000 4565030.000 -1822.500
21602025.000 4564692.500 -1488.750
21601512.500 4564655.000 -1641.250
21601850.000 4564655.000 -1527.500
21601587.500 4564598.750 -1585.625
21601675.000 4564617.500 -1566.250
21601762.500 4564636.250 -1546.875
21601937.500 4564673.750 -1508.125
21602200.000 4565322.500 -1378.750
21602200.000 4565421.250 -1366.875
21602112.500 4565438.750 -1366.875
21601975.000 4565450.000 -1490.000
21602200.000 4565520.000 -1355.000
21602100.000 4565540.000 -1355.000
21602175.000 4565612.500 -1391.250
21601900.000 4565680.000 -1340.000
21601925.000 4565825.000 -1416.250
21602075.000 4565720.000 -1427.500
21601825.000 4565840.000 -1426.250
21601937.500 4565897.500 -1454.375
21601950.000 4565970.000 -1492.500
21602062.500 4565810.000 -1463.750
21602050.000 4565900.000 -1500.000
21602125.000 4565797.500 -1463.750
21602100.000 4565890.000 -1500.000
21602150.000 4565705.000 -1427.500
21602075.000 4565982.500 -1536.250
21602037.500 4565990.000 -1536.250
21602050.000 4566075.000 -1572.500
21602025.000 4566080.000 -1572.500
21601962.500 4566042.500 -1530.625
21602025.000 4566167.500 -1608.750
21602012.500 4566170.000 -1608.750
21601975.000 4566115.000 -1568.750
21602000.000 4566260.000 -1645.000
21601850.000 4566207.500 -1648.750
21601900.000 4566020.000 -1520.000
21601712.500 4566532.500 -1540.000
21601475.000 4566152.500 -1638.750
21601975.000 4566357.500 -1601.250
21601950.000 4566455.000 -1557.500
21601737.500 4566677.500 -1470.000
21601625.000 4566585.000 -1579.375
21601925.000 4566552.500 -1513.750
21601900.000 4566650.000 -1470.000
21601750.000 4566750.000 -1435.000
21601675.000 4566715.000 -1498.125
21601875.000 4566747.500 -1426.250
21601762.500 4566822.500 -1400.000
21601700.000 4566780.000 -1457.500
21601850.000 4566845.000 -1382.500
21601775.000 4566895.000 -1365.000
21601725.000 4566845.000 -1416.875
21601825.000 4566942.500 -1338.750
21601787.500 4566967.500 -1330.000
21601800.000 4567040.000 -1295.000
21601600.000 4567150.000 -1215.000
21601600.000 4566913.750 -1366.875
21601800.000 4567162.500 -1305.625
21601625.000 4567258.750 -1235.625
21601337.500 4567237.500 -1165.000
21601800.000 4567285.000 -1316.250
21601650.000 4567367.500 -1256.250
21601325.000 4567437.500 -1123.125
21601800.000 4567407.500 -1326.875
21601800.000 4567530.000 -1337.500
21601700.000 4567585.000 -1297.500
21601487.500 4567595.000 -1205.000
21601800.000 4567652.500 -1348.125
21601725.000 4567693.750 -1318.125
21601550.000 4567680.000 -1240.000
21601800.000 4567775.000 -1358.750
21601750.000 4567802.500 -1338.750
21601800.000 4567897.500 -1369.375
21601800.000 4568020.000 -1380.000
21601525.000 4568178.750 -1228.750
21601475.000 4568022.500 -1261.875
21601787.500 4568091.250 -1311.875
21601775.000 4568162.500 -1243.750
21601575.000 4568296.250 -1116.250
21601437.500 4568222.500 -1189.375
21601762.500 4568233.750 -1175.625
21601750.000 4568305.000 -1107.500
21601600.000 4568355.000 -1060.000
21601737.500 4568376.250 -1039.375
21601475.000 4568342.500 -1088.125
21601475.000 4568275.000 -1138.750
21601550.000 4568380.000 -1037.500
21601500.000 4568400.000 -1037.500
21601625.000 4568413.750 -1003.750
21601587.500 4568432.500 -986.875
21601725.000 4568447.500 -971.250
21601625.000 4568485.000 -936.250
21601712.500 4568518.750 -903.125
21601675.000 4568531.250 -891.250
21601575.000 4568572.500 -885.625
21601700.000 4568590.000 -835.000
21601600.000 4568630.000 -835.000
21601700.000 4568682.500 -847.500
21601612.500 4568717.500 -847.500
21601700.000 4568775.000 -860.000
21601500.000 4568670.000 -920.000
21601525.000 4568752.500 -921.875
21601487.500 4568608.750 -960.000
21601550.000 4568515.000 -936.250
21601450.000 4568635.000 -990.000
21601450.000 4568565.000 -1011.250
21601025.000 4569030.000 -1268.750
21600700.000 4568840.000 -1526.250
21601637.500 4568892.500 -872.500
21601662.500 4569067.500 -897.500
21601625.000 4568805.000 -860.000
21601700.000 4568867.500 -872.500
21601700.000 4568960.000 -885.000
21601700.000 4569052.500 -897.500
21601700.000 4569145.000 -910.000
21601650.000 4569167.500 -931.250
21601587.500 4569280.000 -990.625
21601700.000 4569237.500 -922.500
21601687.500 4569242.500 -922.500
21601700.000 4569330.000 -935.000
21600775.000 4569805.000 -1458.750
21600800.000 4569507.500 -1419.375
21601700.000 4569453.750 -992.500
21601362.500 4570046.250 -1406.250
21601750.000 4569448.750 -968.125
21601800.000 4569567.500 -1001.250
21601850.000 4569686.250 -1034.375
21601700.000 4569701.250 -1107.500
21601900.000 4569805.000 -1067.500
21601950.000 4569923.750 -1100.625
21602000.000 4570042.500 -1133.750
21601700.000 4570072.500 -1280.000
21602050.000 4570161.250 -1166.875
21601687.500 4570393.750 -1405.625
21602100.000 4570280.000 -1200.000
21601887.500 4570530.000 -1301.250
21601487.500 4570711.250 -1506.250
21602112.500 4570355.000 -1193.125
21602125.000 4570430.000 -1186.250
21602137.500 4570505.000 -1179.375
21601950.000 4570600.000 -1270.000
21602150.000 4570580.000 -1172.500
21602162.500 4570655.000 -1165.625
21602075.000 4570740.000 -1207.500
21602175.000 4570730.000 -1158.750
21602187.500 4570805.000 -1151.875
21602200.000 4570880.000 -1145.000
21601662.500 4571005.000 -1427.500
21602187.500 4570978.750 -1134.375
21601725.000 4571100.000 -1375.000
21601412.500 4571176.250 -1495.000
21602175.000 4571077.500 -1123.750
21601850.000 4571290.000 -1270.000
21602162.500 4571176.250 -1113.125
21602150.000 4571275.000 -1102.500
21601912.500 4571385.000 -1217.500
21601162.500 4571531.250 -1515.000
21602137.500 4571373.750 -1091.875
21602125.000 4571472.500 -1081.250
21602112.500 4571571.250 -1070.625
21602100.000 4571670.000 -1060.000
21601100.000 4571620.000 -1520.000
21601975.000 4571770.000 -1103.750
21601100.000 4572045.000 -1465.000
21602087.500 4571790.000 -1026.875
21602075.000 4571910.000 -993.750
21602062.500 4572030.000 -960.625
21602050.000 4572150.000 -927.500
[...]
POINT_DATA 927
COLOR_SCALARS GocadColor 4
0.819608 0.698116 0.549615 1
0.819608 0.698116 0.549615 1
0.819608 0.698116 0.549615 1
0.819608 0.698116 0.549615 1
0.819608 0.698116 0.549615 1
0.819608 0.698116 0.549615 1
0.819608 0.698116 0.549615 1
0.819608 0.698116 0.549615 1
0.819608 0.698116 0.549615 1
0.819608 0.698116 0.549615 1
0.819608 0.698116 0.549615 1
0.819608 0.698116 0.549615 1
0.819608 0.698116 0.549615 1
0.819608 0.698116 0.549615 1
0.819608 0.698116 0.549615 1
0.819608 0.698116 0.549615 1
0.819608 0.698116 0.549615 1
0.819608 0.698116 0.549615 1
0.819608 0.698116 0.549615 1
0.819608 0.698116 0.549615 1
0.819608 0.698116 0.549615 1
0.819608 0.698116 0.549615 1
0.819608 0.698116 0.549615 1
0.819608 0.698116 0.549615 1
0.819608 0.698116 0.549615 1
0.819608 0.698116 0.549615 1
0.819608 0.698116 0.549615 1
0.819608 0.698116 0.549615 1
0.819608 0.698116 0.549615 1
0.819608 0.698116 0.549615 1
0.819608 0.698116 0.549615 1
0.819608 0.698116 0.549615 1
0.819608 0.698116 0.549615 1
0.819608 0.698116 0.549615 1
0.819608 0.698116 0.549615 1
0.819608 0.698116 0.549615 1
0.819608 0.698116 0.549615 1
0.819608 0.698116 0.549615 1
0.819608 0.698116 0.549615 1
0.819608 0.698116 0.549615 1
0.819608 0.698116 0.549615 1
0.819608 0.698116 0.549615 1
0.819608 0.698116 0.549615 1
0.819608 0.698116 0.549615 1
0.819608 0.698116 0.549615 1
0.819608 0.698116 0.549615 1
0.819608 0.698116 0.549615 1
0.819608 0.698116 0.549615 1
0.819608 0.698116 0.549615 1
0.819608 0.698116 0.549615 1
0.819608 0.698116 0.549615 1
0.819608 0.698116 0.549615 1
0.819608 0.698116 0.549615 1
0.819608 0.698116 0.549615 1
0.819608 0.698116 0.549615 1
0.819608 0.698116 0.549615 1
0.819608 0.698116 0.549615 1
0.819608 0.698116 0.549615 1
0.819608 0.698116 0.549615 1
0.819608 0.698116 0.549615 1
0.819608 0.698116 0.549615 1
0.819608 0.698116 0.549615 1
0.819608 0.698116 0.549615 1
0.819608 0.698116 0.549615 1
0.819608 0.698116 0.549615 1
0.819608 0.698116 0.549615 1
0.819608 0.698116 0.549615 1
0.819608 0.698116 0.549615 1
0.819608 0.698116 0.549615 1
0.819608 0.698116 0.549615 1
0.819608 0.698116 0.549615 1
0.819608 0.698116 0.549615 1
0.819608 0.698116 0.549615 1
0.819608 0.698116 0.549615 1
0.819608 0.698116 0.549615 1
0.819608 0.698116 0.549615 1
0.819608 0.698116 0.549615 1
0.819608 0.698116 0.549615 1
0.819608 0.698116 0.549615 1
0.819608 0.698116 0.549615 1
0.819608 0.698116 0.549615 1
0.819608 0.698116 0.549615 1
0.819608 0.698116 0.549615 1
0.819608 0.698116 0.549615 1
0.819608 0.698116 0.549615 1
0.819608 0.698116 0.549615 1
0.819608 0.698116 0.549615 1
0.819608 0.698116 0.549615 1
0.819608 0.698116 0.549615 1
0.819608 0.698116 0.549615 1
0.819608 0.698116 0.549615 1
0.819608 0.698116 0.549615 1
0.819608 0.698116 0.549615 1
0.819608 0.698116 0.549615 1
0.819608 0.698116 0.549615 1
0.819608 0.698116 0.549615 1
0.819608 0.698116 0.549615 1
0.819608 0.698116 0.549615 1
0.819608 0.698116 0.549615 1
0.819608 0.698116 0.549615 1
0.819608 0.698116 0.549615 1
0.819608 0.698116 0.549615 1
0.819608 0.698116 0.549615 1
0.819608 0.698116 0.549615 1
0.819608 0.698116 0.549615 1
0.819608 0.698116 0.549615 1
0.819608 0.698116 0.549615 1
0.819608 0.698116 0.549615 1
0.819608 0.698116 0.549615 1
0.819608 0.698116 0.549615 1
0.819608 0.698116 0.549615 1
0.819608 0.698116 0.549615 1
0.819608 0.698116 0.549615 1
0.819608 0.698116 0.549615 1
0.819608 0.698116 0.549615 1
0.819608 0.698116 0.549615 1
0.819608 0.698116 0.549615 1
0.819608 0.698116 0.549615 1
0.819608 0.698116 0.549615 1
0.819608 0.698116 0.549615 1
0.819608 0.698116 0.549615 1
0.819608 0.698116 0.549615 1
0.819608 0.698116 0.549615 1
0.819608 0.698116 0.549615 1
0.819608 0.698116 0.549615 1
0.819608 0.698116 0.549615 1
0.819608 0.698116 0.549615 1
0.819608 0.698116 0.549615 1
0.819608 0.698116 0.549615 1
0.819608 0.698116 0.549615 1
0.819608 0.698116 0.549615 1
0.819608 0.698116 0.549615 1
0.819608 0.698116 0.549615 1
0.819608 0.698116 0.549615 1
0.819608 0.698116 0.549615 1
0.819608 0.698116 0.549615 1
0.819608 0.698116 0.549615 1
0.819608 0.698116 0.549615 1
0.819608 0.698116 0.549615 1
0.819608 0.698116 0.549615 1
0.819608 0.698116 0.549615 1
0.819608 0.698116 0.549615 1
0.819608 0.698116 0.549615 1
0.819608 0.698116 0.549615 1
0.819608 0.698116 0.549615 1
0.819608 0.698116 0.549615 1
0.819608 0.698116 0.549615 1
0.819608 0.698116 0.549615 1
0.819608 0.698116 0.549615 1
0.819608 0.698116 0.549615 1
0.819608 0.698116 0.549615 1
0.819608 0.698116 0.549615 1
0.819608 0.698116 0.549615 1
0.819608 0.698116 0.549615 1
0.819608 0.698116 0.549615 1
0.819608 0.698116 0.549615 1
0.819608 0.698116 0.549615 1
0.819608 0.698116 0.549615 1
0.819608 0.698116 0.549615 1
0.819608 0.698116 0.549615 1
0.819608 0.698116 0.549615 1
0.819608 0.698116 0.549615 1
0.819608 0.698116 0.549615 1
0.819608 0.698116 0.549615 1
0.819608 0.698116 0.549615 1
0.819608 0.698116 0.549615 1
0.819608 0.698116 0.549615 1
0.819608 0.698116 0.549615 1
0.819608 0.698116 0.549615 1
0.819608 0.698116 0.549615 1
0.819608 0.698116 0.549615 1
0.819608 0.698116 0.549615 1
0.819608 0.698116 0.549615 1
0.819608 0.698116 0.549615 1
0.819608 0.698116 0.549615 1
0.819608 0.698116 0.549615 1
0.819608 0.698116 0.549615 1
0.819608 0.698116 0.549615 1
0.819608 0.698116 0.549615 1
0.819608 0.698116 0.549615 1
0.819608 0.698116 0.549615 1
0.819608 0.698116 0.549615 1
0.819608 0.698116 0.549615 1
0.819608 0.698116 0.549615 1
0.819608 0.698116 0.549615 1
0.819608 0.698116 0.549615 1
0.819608 0.698116 0.549615 1
0.819608 0.698116 0.549615 1
0.819608 0.698116 0.549615 1
0.819608 0.698116 0.549615 1
0.819608 0.698116 0.549615 1
0.819608 0.698116 0.549615 1
0.819608 0.698116 0.549615 1
0.819608 0.698116 0.549615 1
0.819608 0.698116 0.549615 1
0.819608 0.698116 0.549615 1
0.819608 0.698116 0.549615 1
0.819608 0.698116 0.549615 1
0.819608 0.698116 0.549615 1
0.819608 0.698116 0.549615 1
0.819608 0.698116 0.549615 1
0.819608 0.698116 0.549615 1
0.819608 0.698116 0.549615 1
0.819608 0.698116 0.549615 1
0.819608 0.698116 0.549615 1
0.819608 0.698116 0.549615 1
0.819608 0.698116 0.549615 1
0.819608 0.698116 0.549615 1
0.819608 0.698116 0.549615 1
0.819608 0.698116 0.549615 1
0.819608 0.698116 0.549615 1
0.819608 0.698116 0.549615 1
0.819608 0.698116 0.549615 1
0.819608 0.698116 0.549615 1
0.819608 0.698116 0.549615 1
0.819608 0.698116 0.549615 1
0.819608 0.698116 0.549615 1
0.819608 0.698116 0.549615 1
0.819608 0.698116 0.549615 1
0.819608 0.698116 0.549615 1
0.819608 0.698116 0.549615 1
0.819608 0.698116 0.549615 1
0.819608 0.698116 0.549615 1
0.819608 0.698116 0.549615 1
0.819608 0.698116 0.549615 1
0.819608 0.698116 0.549615 1
0.819608 0.698116 0.549615 1
0.819608 0.698116 0.549615 1
0.819608 0.698116 0.549615 1
0.819608 0.698116 0.549615 1
0.819608 0.698116 0.549615 1
0.819608 0.698116 0.549615 1
0.819608 0.698116 0.549615 1
0.819608 0.698116 0.549615 1
0.819608 0.698116 0.549615 1
0.819608 0.698116 0.549615 1
0.819608 0.698116 0.549615 1
0.819608 0.698116 0.549615 1
0.819608 0.698116 0.549615 1
0.819608 0.698116 0.549615 1
0.819608 0.698116 0.549615 1
0.819608 0.698116 0.549615 1
0.819608 0.698116 0.549615 1
0.819608 0.698116 0.549615 1
0.819608 0.698116 0.549615 1
0.819608 0.698116 0.549615 1
0.819608 0.698116 0.549615 1
0.819608 0.698116 0.549615 1
0.819608 0.698116 0.549615 1
0.819608 0.698116 0.549615 1
0.819608 0.698116 0.549615 1
0.819608 0.698116 0.549615 1
0.819608 0.698116 0.549615 1
0.819608 0.698116 0.549615 1
0.819608 0.698116 0.549615 1
0.819608 0.698116 0.549615 1
0.819608 0.698116 0.549615 1
0.819608 0.698116 0.549615 1
0.819608 0.698116 0.549615 1
0.819608 0.698116 0.549615 1
0.819608 0.698116 0.549615 1
0.819608 0.698116 0.549615 1
0.819608 0.698116 0.549615 1
0.819608 0.698116 0.549615 1
0.819608 0.698116 0.549615 1
0.819608 0.698116 0.549615 1
0.819608 0.698116 0.549615 1
0.819608 0.698116 0.549615 1
0.819608 0.698116 0.549615 1
0.819608 0.698116 0.549615 1
0.819608 0.698116 0.549615 1
0.819608 0.698116 0.549615 1
0.819608 0.698116 0.549615 1
0.819608 0.698116 0.549615 1
0.819608 0.698116 0.549615 1
0.819608 0.698116 0.549615 1
0.819608 0.698116 0.549615 1
0.819608 0.698116 0.549615 1
0.819608 0.698116 0.549615 1
0.819608 0.698116 0.549615 1
0.819608 0.698116 0.549615 1
0.819608 0.698116 0.549615 1
0.819608 0.698116 0.549615 1
0.819608 0.698116 0.549615 1
0.819608 0.698116 0.549615 1
0.819608 0.698116 0.549615 1
0.819608 0.698116 0.549615 1
0.819608 0.698116 0.549615 1
0.819608 0.698116 0.549615 1
0.819608 0.698116 0.549615 1
0.819608 0.698116 0.549615 1
0.819608 0.698116 0.549615 1
0.819608 0.698116 0.549615 1
0.819608 0.698116 0.549615 1
0.819608 0.698116 0.549615 1
0.819608 0.698116 0.549615 1
0.819608 0.698116 0.549615 1
0.819608 0.698116 0.549615 1
0.819608 0.698116 0.549615 1
0.819608 0.698116 0.549615 1
0.819608 0.698116 0.549615 1
0.819608 0.698116 0.549615 1
0.819608 0.698116 0.549615 1
0.819608 0.698116 0.549615 1
0.819608 0.698116 0.549615 1
0.819608 0.698116 0.549615 1
0.819608 0.698116 0.549615 1
0.819608 0.698116 0.549615 1
0.819608 0.698116 0.549615 1
0.819608 0.698116 0.549615 1
0.819608 0.698116 0.549615 1
0.819608 0.698116 0.549615 1
0.819608 0.698116 0.549615 1
0.819608 0.698116 0.549615 1
0.819608 0.698116 0.549615 1
0.819608 0.698116 0.549615 1
0.819608 0.698116 0.549615 1
0.819608 0.698116 0.549615 1
0.819608 0.698116 0.549615 1
0.819608 0.698116 0.549615 1
0.819608 0.698116 0.549615 1
0.819608 0.698116 0.549615 1
0.819608 0.698116 0.549615 1
0.819608 0.698116 0.549615 1
0.819608 0.698116 0.549615 1
0.819608 0.698116 0.549615 1
0.819608 0.698116 0.549615 1
0.819608 0.698116 0.549615 1
0.819608 0.698116 0.549615 1
0.819608 0.698116 0.549615 1
0.819608 0.698116 0.549615 1
0.819608 0.698116 0.549615 1
0.819608 0.698116 0.549615 1
0.819608 0.698116 0.549615 1
0.819608 0.698116 0.549615 1
0.819608 0.698116 0.549615 1
0.819608 0.698116 0.549615 1
0.819608 0.698116 0.549615 1
0.819608 0.698116 0.549615 1
0.819608 0.698116 0.549615 1
0.819608 0.698116 0.549615 1
0.819608 0.698116 0.549615 1
0.819608 0.698116 0.549615 1
0.819608 0.698116 0.549615 1
0.819608 0.698116 0.549615 1
0.819608 0.698116 0.549615 1
0.819608 0.698116 0.549615 1
0.819608 0.698116 0.549615 1
0.819608 0.698116 0.549615 1
0.819608 0.698116 0.549615 1
0.819608 0.698116 0.549615 1
0.819608 0.698116 0.549615 1
0.819608 0.698116 0.549615 1
0.819608 0.698116 0.549615 1
0.819608 0.698116 0.549615 1
0.819608 0.698116 0.549615 1
0.819608 0.698116 0.549615 1
0.819608 0.698116 0.549615 1
0.819608 0.698116 0.549615 1
0.819608 0.698116 0.549615 1
0.819608 0.698116 0.549615 1
0.819608 0.698116 0.549615 1
0.819608 0.698116 0.549615 1
0.819608 0.698116 0.549615 1
0.819608 0.698116 0.549615 1
0.819608 0.698116 0.549615 1
0.819608 0.698116 0.549615 1
0.819608 0.698116 0.549615 1
0.819608 0.698116 0.549615 1
0.819608 0.698116 0.549615 1
0.819608 0.698116 0.549615 1
0.819608 0.698116 0.549615 1
0.819608 0.698116 0.549615 1
0.819608 0.698116 0.549615 1
0.819608 0.698116 0.549615 1
0.819608 0.698116 0.549615 1
0.819608 0.698116 0.549615 1
0.819608 0.698116 0.549615 1
0.819608 0.698116 0.549615 1
0.819608 0.698116 0.549615 1
0.819608 0.698116 0.549615 1
0.819608 0.698116 0.549615 1
0.819608 0.698116 0.549615 1
0.819608 0.698116 0.549615 1
0.819608 0.698116 0.549615 1
0.819608 0.698116 0.549615 1
0.819608 0.698116 0.549615 1
0.819608 0.698116 0.549615 1
0.819608 0.698116 0.549615 1
0.819608 0.698116 0.549615 1
0.819608 0.698116 0.549615 1
0.819608 0.698116 0.549615 1
0.819608 0.698116 0.549615 1
0.819608 0.698116 0.549615 1
0.819608 0.698116 0.549615 1
0.819608 0.698116 0.549615 1
0.819608 0.698116 0.549615 1
0.819608 0.698116 0.549615 1
0.819608 0.698116 0.549615 1
0.819608 0.698116 0.549615 1
0.819608 0.698116 0.549615 1
0.819608 0.698116 0.549615 1
0.819608 0.698116 0.549615 1
0.819608 0.698116 0.549615 1
0.819608 0.698116 0.549615 1
0.819608 0.698116 0.549615 1
0.819608 0.698116 0.549615 1
0.819608 0.698116 0.549615 1
0.819608 0.698116 0.549615 1
0.819608 0.698116 0.549615 1
0.819608 0.698116 0.549615 1
0.819608 0.698116 0.549615 1
0.819608 0.698116 0.549615 1
0.819608 0.698116 0.549615 1
0.819608 0.698116 0.549615 1
0.819608 0.698116 0.549615 1
0.819608 0.698116 0.549615 1
0.819608 0.698116 0.549615 1
0.819608 0.698116 0.549615 1
0.819608 0.698116 0.549615 1
0.819608 0.698116 0.549615 1
0.819608 0.698116 0.549615 1
0.819608 0.698116 0.549615 1
0.819608 0.698116 0.549615 1
0.819608 0.698116 0.549615 1
0.819608 0.698116 0.549615 1
0.819608 0.698116 0.549615 1
0.819608 0.698116 0.549615 1
0.819608 0.698116 0.549615 1
0.819608 0.698116 0.549615 1
0.819608 0.698116 0.549615 1
0.819608 0.698116 0.549615 1
0.819608 0.698116 0.549615 1
0.819608 0.698116 0.549615 1
0.819608 0.698116 0.549615 1
0.819608 0.698116 0.549615 1
0.819608 0.698116 0.549615 1
0.819608 0.698116 0.549615 1
0.819608 0.698116 0.549615 1
0.819608 0.698116 0.549615 1
0.819608 0.698116 0.549615 1
0.819608 0.698116 0.549615 1
0.819608 0.698116 0.549615 1
0.819608 0.698116 0.549615 1
0.819608 0.698116 0.549615 1
0.819608 0.698116 0.549615 1
0.819608 0.698116 0.549615 1
0.819608 0.698116 0.549615 1
0.819608 0.698116 0.549615 1
0.819608 0.698116 0.549615 1
0.819608 0.698116 0.549615 1
0.819608 0.698116 0.549615 1
0.819608 0.698116 0.549615 1
0.819608 0.698116 0.549615 1
0.819608 0.698116 0.549615 1
0.819608 0.698116 0.549615 1
0.819608 0.698116 0.549615 1
0.819608 0.698116 0.549615 1
0.819608 0.698116 0.549615 1
0.819608 0.698116 0.549615 1
0.819608 0.698116 0.549615 1
0.819608 0.698116 0.549615 1
0.819608 0.698116 0.549615 1
0.819608 0.698116 0.549615 1
0.819608 0.698116 0.549615 1
0.819608 0.698116 0.549615 1
0.819608 0.698116 0.549615 1
0.819608 0.698116 0.549615 1
0.819608 0.698116 0.549615 1
0.819608 0.698116 0.549615 1
0.819608 0.698116 0.549615 1
0.819608 0.698116 0.549615 1
0.819608 0.698116 0.549615 1
0.819608 0.698116 0.549615 1
0.819608 0.698116 0.549615 1
0.819608 0.698116 0.549615 1
0.819608 0.698116 0.549615 1
0.819608 0.698116 0.549615 1
0.819608 0.698116 0.549615 1
0.819608 0.698116 0.549615 1
0.819608 0.698116 0.549615 1
0.819608 0.698116 0.549615 1
0.819608 0.698116 0.549615 1
0.819608 0.698116 0.549615 1
0.819608 0.698116 0.549615 1
0.819608 0.698116 0.549615 1
0.819608 0.698116 0.549615 1
0.819608 0.698116 0.549615 1
0.819608 0.698116 0.549615 1
0.819608 0.698116 0.549615 1
0.819608 0.698116 0.549615 1
0.819608 0.698116 0.549615 1
0.819608 0.698116 0.549615 1
0.819608 0.698116 0.549615 1
0.819608 0.698116 0.549615 1
0.819608 0.698116 0.549615 1
0.819608 0.698116 0.549615 1
0.819608 0.698116 0.549615 1
0.819608 0.698116 0.549615 1
0.819608 0.698116 0.549615 1
0.819608 0.698116 0.549615 1
0.819608 0.698116 0.549615 1
0.819608 0.698116 0.549615 1
0.819608 0.698116 0.549615 1
0.819608 0.698116 0.549615 1
0.819608 0.698116 0.549615 1
0.819608 0.698116 0.549615 1
0.819608 0.698116 0.549615 1
0.819608 0.698116 0.549615 1
0.819608 0.698116 0.549615 1
0.819608 0.698116 0.549615 1
0.819608 0.698116 0.549615 1
0.819608 0.698116 0.549615 1
0.819608 0.698116 0.549615 1
0.819608 0.698116 0.549615 1
0.819608 0.698116 0.549615 1
0.819608 0.698116 0.549615 1
0.819608 0.698116 0.549615 1
0.819608 0.698116 0.549615 1
0.819608 0.698116 0.549615 1
0.819608 0.698116 0.549615 1
0.819608 0.698116 0.549615 1
0.819608 0.698116 0.549615 1
0.819608 0.698116 0.549615 1
0.819608 0.698116 0.549615 1
0.819608 0.698116 0.549615 1
0.819608 0.698116 0.549615 1
0.819608 0.698116 0.549615 1
0.819608 0.698116 0.549615 1
0.819608 0.698116 0.549615 1
0.819608 0.698116 0.549615 1
0.819608 0.698116 0.549615 1
0.819608 0.698116 0.549615 1
0.819608 0.698116 0.549615 1
0.819608 0.698116 0.549615 1
0.819608 0.698116 0.549615 1
0.819608 0.698116 0.549615 1
0.819608 0.698116 0.549615 1
0.819608 0.698116 0.549615 1
0.819608 0.698116 0.549615 1
0.819608 0.698116 0.549615 1
0.819608 0.698116 0.549615 1
0.819608 0.698116 0.549615 1
0.819608 0.698116 0.549615 1
0.819608 0.698116 0.549615 1
0.819608 0.698116 0.549615 1
0.819608 0.698116 0.549615 1
0.819608 0.698116 0.549615 1
0.819608 0.698116 0.549615 1
0.819608 0.698116 0.549615 1
0.819608 0.698116 0.549615 1
0.819608 0.698116 0.549615 1
0.819608 0.698116 0.549615 1
0.819608 0.698116 0.549615 1
0.819608 0.698116 0.549615 1
0.819608 0.698116 0.549615 1
0.819608 0.698116 0.549615 1
0.819608 0.698116 0.549615 1
0.819608 0.698116 0.549615 1
0.819608 0.698116 0.549615 1
0.819608 0.698116 0.549615 1
0.819608 0.698116 0.549615 1
0.819608 0.698116 0.549615 1
0.819608 0.698116 0.549615 1
0.819608 0.698116 0.549615 1
0.819608 0.698116 0.549615 1
0.819608 0.698116 0.549615 1
0.819608 0.698116 0.549615 1
0.819608 0.698116 0.549615 1
0.819608 0.698116 0.549615 1
0.819608 0.698116 0.549615 1
0.819608 0.698116 0.549615 1
0.819608 0.698116 0.549615 1
0.819608 0.698116 0.549615 1
0.819608 0.698116 0.549615 1
0.819608 0.698116 0.549615 1
0.819608 0.698116 0.549615 1
0.819608 0.698116 0.549615 1
0.819608 0.698116 0.549615 1
0.819608 0.698116 0.549615 1
0.819608 0.698116 0.549615 1
0.819608 0.698116 0.549615 1
0.819608 0.698116 0.549615 1
0.819608 0.698116 0.549615 1
0.819608 0.698116 0.549615 1
0.819608 0.698116 0.549615 1
0.819608 0.698116 0.549615 1
0.819608 0.698116 0.549615 1
0.819608 0.698116 0.549615 1
0.819608 0.698116 0.549615 1
0.819608 0.698116 0.549615 1
0.819608 0.698116 0.549615 1
0.819608 0.698116 0.549615 1
0.819608 0.698116 0.549615 1
0.819608 0.698116 0.549615 1
0.819608 0.698116 0.549615 1
0.819608 0.698116 0.549615 1
0.819608 0.698116 0.549615 1
0.819608 0.698116 0.549615 1
0.819608 0.698116 0.549615 1
0.819608 0.698116 0.549615 1
0.819608 0.698116 0.549615 1
0.819608 0.698116 0.549615 1
0.819608 0.698116 0.549615 1
0.819608 0.698116 0.549615 1
0.819608 0.698116 0.549615 1
0.819608 0.698116 0.549615 1
0.819608 0.698116 0.549615 1
0.819608 0.698116 0.549615 1
0.819608 0.698116 0.549615 1
0.819608 0.698116 0.549615 1
0.819608 0.698116 0.549615 1
0.819608 0.698116 0.549615 1
0.819608 0.698116 0.549615 1
0.819608 0.698116 0.549615 1
0.819608 0.698116 0.549615 1
0.819608 0.698116 0.549615 1
0.819608 0.698116 0.549615 1
0.819608 0.698116 0.549615 1
0.819608 0.698116 0.549615 1
0.819608 0.698116 0.549615 1
0.819608 0.698116 0.549615 1
0.819608 0.698116 0.549615 1
0.819608 0.698116 0.549615 1
0.819608 0.698116 0.549615 1
0.819608 0.698116 0.549615 1
0.819608 0.698116 0.549615 1
0.819608 0.698116 0.549615 1
0.819608 0.698116 0.549615 1
0.819608 0.698116 0.549615 1
0.819608 0.698116 0.549615 1
0.819608 0.698116 0.549615 1
0.819608 0.698116 0.549615 1
0.819608 0.698116 0.549615 1
0.819608 0.698116 0.549615 1
0.819608 0.698116 0.549615 1
0.819608 0.698116 0.549615 1
0.819608 0.698116 0.549615 1
0.819608 0.698116 0.549615 1
0.819608 0.698116 0.549615 1
0.819608 0.698116 0.549615 1
0.819608 0.698116 0.549615 1
0.819608 0.698116 0.549615 1
0.819608 0.698116 0.549615 1
0.819608 0.698116 0.549615 1
0.819608 0.698116 0.549615 1
0.819608 0.698116 0.549615 1
0.819608 0.698116 0.549615 1
0.819608 0.698116 0.549615 1
0.819608 0.698116 0.549615 1
0.819608 0.698116 0.549615 1
0.819608 0.698116 0.549615 1
0.819608 0.698116 0.549615 1
0.819608 0.698116 0.549615 1
0.819608 0.698116 0.549615 1
0.819608 0.698116 0.549615 1
0.819608 0.698116 0.549615 1
0.819608 0.698116 0.549615 1
0.819608 0.698116 0.549615 1
0.819608 0.698116 0.549615 1
0.819608 0.698116 0.549615 1
0.819608 0.698116 0.549615 1
0.819608 0.698116 0.549615 1
0.819608 0.698116 0.549615 1
0.819608 0.698116 0.549615 1
0.819608 0.698116 0.549615 1
0.819608 0.698116 0.549615 1
0.819608 0.698116 0.549615 1
0.819608 0.698116 0.549615 1
0.819608 0.698116 0.549615 1
0.819608 0.698116 0.549615 1
0.819608 0.698116 0.549615 1
0.819608 0.698116 0.549615 1
0.819608 0.698116 0.549615 1
0.819608 0.698116 0.549615 1
0.819608 0.698116 0.549615 1
0.819608 0.698116 0.549615 1
0.819608 0.698116 0.549615 1
0.819608 0.698116 0.549615 1
0.819608 0.698116 0.549615 1
0.819608 0.698116 0.549615 1
0.819608 0.698116 0.549615 1
0.819608 0.698116 0.549615 1
0.819608 0.698116 0.549615 1
0.819608 0.698116 0.549615 1
0.819608 0.698116 0.549615 1
0.819608 0.698116 0.549615 1
0.819608 0.698116 0.549615 1