# vtk DataFile Version 3.0
Gocad TSurf to VTK
ASCII
DATASET POLYDATA
POINTS 249 float
21557150.000 4567420.000 -295.000
21557550.000 4567717.500 -321.250
21557475.000 4567920.000 -332.500
21557900.000 4568150.000 -355.000
21557050.000 4567520.000 -280.000
21557200.000 4567285.000 -287.500
21557700.000 4567515.000 -261.250
21556825.000 4566920.000 -257.500
21556775.000 4566970.000 -250.000
21556850.000 4566852.500 -253.750
21557300.000 4567150.000 -247.500
21556500.000 4566420.000 -220.000
21556900.000 4566785.000 -233.750
21556475.000 4567090.000 -321.250
21556850.000 4567600.000 -327.500
21556100.000 4566580.000 -315.000
21556400.000 4566345.000 -198.750
21556250.000 4567172.500 -332.500
21556700.000 4567655.000 -335.000
21555800.000 4566690.000 -330.000
21555825.000 4566567.500 -308.750
21556100.000 4567262.500 -280.000
21556600.000 4567715.000 -300.000
21555600.000 4566810.000 -260.000
21555700.000 4566610.000 -308.750
21555800.000 4567367.500 -175.000
21556400.000 4567785.000 -230.000
21555200.000 4566950.000 -120.000
21555250.000 4566805.000 -151.250
21555150.000 4566845.000 -145.000
21555550.000 4566700.000 -256.250
21555300.000 4566660.000 -182.500
21555600.000 4566530.000 -287.500
21555500.000 4566590.000 -252.500
21555850.000 4566445.000 -287.500
21555875.000 4566322.500 -266.250
21556000.000 4566390.000 -280.000
21555500.000 4566450.000 -266.250
21555900.000 4566200.000 -245.000
21555950.000 4566295.000 -262.500
21555400.000 4566370.000 -245.000
21555450.000 4566480.000 -248.750
21555600.000 4565967.500 -235.000
21555225.000 4566095.000 -235.000
21555750.000 4565907.500 -152.500
21555400.000 4565695.000 -170.000
21556100.000 4566120.000 -135.000
21555975.000 4565825.000 -81.250
21556100.000 4566235.000 -180.000
21556200.000 4566195.000 -156.250
21556100.000 4566350.000 -225.000
21556100.000 4566465.000 -270.000
21556300.000 4566270.000 -177.500
21556050.000 4566485.000 -297.500
21556450.000 4566215.000 -130.000
21556475.000 4566317.500 -175.000
21556425.000 4566112.500 -85.000
21556550.000 4566175.000 -72.500
21556400.000 4566010.000 -40.000
21556475.000 4566092.500 -56.250
21556625.000 4566257.500 -88.750
21556700.000 4566340.000 -105.000
21557050.000 4566725.000 -147.500
21557050.000 4566722.500 -147.500
21557400.000 4567110.000 -190.000
21557400.000 4567105.000 -190.000
21557750.000 4567495.000 -232.500
21557750.000 4567487.500 -232.500
21558100.000 4567880.000 -275.000
21558100.000 4567870.000 -275.000
21558425.000 4568230.000 -305.000
21558425.000 4568222.500 -305.000
21558275.000 4568432.500 -365.000
21558750.000 4568580.000 -335.000
21557800.000 4568420.000 -370.000
21558200.000 4568635.000 -376.250
21558650.000 4568715.000 -375.000
21558200.000 4568672.500 -383.750
21558600.000 4568850.000 -382.500
21558050.000 4568822.500 -361.250
21558500.000 4569025.000 -382.500
21557600.000 4568620.000 -340.000
21557325.000 4568070.000 -310.000
21558050.000 4568880.000 -371.250
21558025.000 4569017.500 -382.500
21558500.000 4569140.000 -402.500
21558000.000 4569087.500 -378.750
21558450.000 4569415.000 -425.000
21558000.000 4569090.000 -378.750
21558400.000 4569555.000 -417.500
21558400.000 4569560.000 -417.500
21558800.000 4570022.500 -456.250
21558875.000 4569812.500 -467.500
21558800.000 4570030.000 -456.250
21559200.000 4570490.000 -495.000
21559300.000 4570210.000 -510.000
21559200.000 4570500.000 -495.000
21559550.000 4570525.000 -508.750
21559550.000 4570532.500 -508.750
21559900.000 4570560.000 -522.500
21559625.000 4570315.000 -520.000
21559900.000 4570565.000 -522.500
21560250.000 4570595.000 -536.250
21559950.000 4570420.000 -530.000
21560250.000 4570597.500 -536.250
21560600.000 4570630.000 -550.000
21560275.000 4570525.000 -540.000
21560425.000 4570330.000 -528.750
21560050.000 4570290.000 -522.500
21560800.000 4570370.000 -535.000
21560450.000 4570192.500 -517.500
21561100.000 4570730.000 -536.250
21561250.000 4570535.000 -525.000
21560900.000 4570150.000 -495.000
21561600.000 4570830.000 -522.500
21561700.000 4570700.000 -515.000
21561325.000 4570370.000 -495.000
21562100.000 4570930.000 -508.750
21562150.000 4570865.000 -505.000
21561750.000 4570590.000 -495.000
21562600.000 4571030.000 -495.000
21562175.000 4570810.000 -495.000
21562250.000 4570772.500 -536.250
21561800.000 4570565.000 -522.500
21562700.000 4570980.000 -550.000
21562325.000 4570712.500 -543.750
21561850.000 4570525.000 -527.500
21562800.000 4570900.000 -560.000
21561375.000 4570337.500 -511.250
21561350.000 4570357.500 -508.750
21560525.000 4570027.500 -487.500
21560525.000 4569970.000 -477.500
21560150.000 4569905.000 -480.000
21560525.000 4569932.500 -470.000
21560150.000 4569790.000 -460.000
21560150.000 4569715.000 -445.000
21559775.000 4569782.500 -472.500
21559775.000 4569610.000 -442.500
21560100.000 4570015.000 -500.000
21559750.000 4569837.500 -482.500
21559675.000 4570250.000 -516.250
21559400.000 4569660.000 -465.000
21558950.000 4569400.000 -433.750
21559400.000 4569430.000 -425.000
21558950.000 4569227.500 -403.750
21558600.000 4568925.000 -397.500
21559000.000 4569177.500 -411.250
21559000.000 4569065.000 -388.750
21559400.000 4569280.000 -395.000
21559775.000 4569497.500 -420.000
21559025.000 4568997.500 -385.000
21559075.000 4568930.000 -365.000
21559075.000 4568927.500 -365.000
21558750.000 4568575.000 -335.000
21557225.000 4568110.000 -333.750
21557150.000 4568137.500 -337.500
21557100.000 4568167.500 -320.000
21557000.000 4568202.500 -285.000
21555550.000 4565640.000 -122.500
21555125.000 4565455.000 -163.750
21555050.000 4565482.500 -187.500
21554700.000 4565270.000 -205.000
21555300.000 4565735.000 -225.000
21555000.000 4565502.500 -215.000
21555050.000 4565820.000 -225.000
21554925.000 4566215.000 -216.250
21554850.000 4565900.000 -212.500
21555000.000 4566530.000 -220.000
21554875.000 4566252.500 -236.250
21554750.000 4565975.000 -252.500
21554800.000 4566310.000 -247.500
21554600.000 4566090.000 -275.000
21554600.000 4566670.000 -105.000
21554500.000 4566415.000 -161.250
21554750.000 4566740.000 -108.750
21555050.000 4566635.000 -195.000
21555350.000 4566515.000 -213.750
21554900.000 4566810.000 -112.500
21555100.000 4566740.000 -170.000
21555050.000 4566880.000 -116.250
21554450.000 4566457.500 -161.250
21554300.000 4566245.000 -217.500
21554375.000 4566492.500 -143.750
21554150.000 4566315.000 -182.500
21554150.000 4566032.500 -273.750
21554400.000 4566160.000 -217.500
21553925.000 4566137.500 -221.250
21554000.000 4565820.000 -330.000
21554300.000 4565905.000 -273.750
21553700.000 4565960.000 -260.000
21553875.000 4565755.000 -325.000
21553650.000 4565860.000 -272.500
21554025.000 4565627.500 -325.000
21553850.000 4565605.000 -320.000
21554200.000 4565650.000 -330.000
21554075.000 4565512.500 -322.500
21554400.000 4565870.000 -302.500
21554625.000 4565697.500 -268.750
21554775.000 4565585.000 -208.750
21554875.000 4565545.000 -215.000
21554500.000 4565420.000 -285.000
21554300.000 4565340.000 -288.750
21554325.000 4565277.500 -271.250
21554100.000 4565260.000 -292.500
21554475.000 4565165.000 -211.250
21554250.000 4565060.000 -217.500
21554150.000 4565135.000 -257.500
21554025.000 4564955.000 -223.750
21553900.000 4565180.000 -296.250
21553975.000 4564992.500 -243.750
21553950.000 4565375.000 -315.000
21553825.000 4565237.500 -307.500
21553675.000 4565582.500 -315.000
21553750.000 4565690.000 -320.000
21553625.000 4565625.000 -315.000
21553600.000 4565760.000 -285.000
21553600.000 4565830.000 -265.000
21553650.000 4565895.000 -262.500
21553550.000 4565765.000 -267.500
21553550.000 4565660.000 -297.500
21553500.000 4565700.000 -270.000
21553500.000 4565560.000 -310.000
21553250.000 4565340.000 -281.250
21553250.000 4565235.000 -311.250
21553000.000 4564980.000 -292.500
21553700.000 4565100.000 -300.000
21553400.000 4564890.000 -303.750
21553800.000 4564850.000 -230.000
21553475.000 4564702.500 -251.250
21553100.000 4564680.000 -307.500
21553475.000 4564705.000 -251.250
21553150.000 4564560.000 -272.500
21553475.000 4564695.000 -251.250
21553475.000 4564682.500 -251.250
21553150.000 4564540.000 -272.500
21553150.000 4564515.000 -272.500
21552825.000 4564385.000 -293.750
21552825.000 4564415.000 -293.750
21552825.000 4564347.500 -293.750
21552500.000 4564230.000 -315.000
21552500.000 4564180.000 -315.000
21552500.000 4564270.000 -315.000
21552825.000 4564407.500 -293.750
21552500.000 4564260.000 -315.000
21553150.000 4564555.000 -272.500
21552800.000 4564470.000 -311.250
21552750.000 4564585.000 -313.750
21552750.000 4564620.000 -303.750
21553000.000 4564910.000 -312.500

POLYGONS 427 1708
3 78 75 76
3 228 227 226
3 21 23 19
3 108 103 140
3 194 195 201
3 83 81 79
3 156 18 155
3 175 176 31
3 89 87 92
3 72 74 3
3 7 5 0
3 232 230 231
3 246 247 243
3 201 203 202
3 37 35 32
3 157 156 81
3 86 84 87
3 100 95 140
3 144 143 142
3 225 221 223
3 2 3 74
3 2 1 3
3 200 161 198
3 214 221 212
3 58 46 47
3 147 78 150
3 244 228 229
3 86 81 84
3 220 221 219
3 5 10 6
3 96 94 97
3 241 239 236
3 173 185 171
3 186 184 183
3 155 18 14
3 151 73 152
3 19 23 24
3 79 74 77
3 52 56 54
3 44 42 45
3 132 136 134
3 155 154 81
3 18 17 13
3 38 46 48
3 231 244 237
3 38 42 44
3 157 26 22
3 242 245 243
3 115 116 119
3 171 169 168
3 151 76 73
3 9 12 10
3 60 55 54
3 125 122 126
3 155 14 154
3 97 100 99
3 27 179 29
3 208 209 206
3 15 20 53
3 216 215 191
3 199 161 163
3 13 15 11
3 236 237 241
3 30 31 33
3 190 213 193
3 226 225 223
3 187 194 188
3 154 14 4
3 52 54 16
3 29 178 28
3 167 170 168
3 172 182 180
3 0 5 1
3 137 149 135
3 143 141 142
3 146 147 148
3 200 202 204
3 181 184 185
3 203 206 202
3 57 54 56
3 49 56 52
3 185 188 196
3 99 100 103
3 169 166 165
3 196 194 197
3 94 95 97
3 174 167 175
3 111 112 114
3 80 77 145
3 53 34 36
3 4 2 82
3 172 180 173
3 158 45 159
3 138 139 136
3 123 119 129
3 33 31 176
3 215 219 214
3 61 55 60
3 156 155 81
3 131 134 133
3 8 11 7
3 33 176 41
3 84 85 87
3 172 167 174
3 170 173 171
3 24 30 32
3 196 197 169
3 22 17 18
3 27 29 28
3 165 166 164
3 195 210 203
3 33 41 37
3 230 227 228
3 97 95 100
3 166 198 199
3 102 103 106
3 36 50 51
3 112 113 116
3 193 212 210
3 179 178 29
3 225 227 209
3 194 192 195
3 167 168 165
3 168 169 165
3 160 161 159
3 153 70 71
3 161 200 204
3 22 21 17
3 218 220 219
3 104 101 102
3 26 21 22
3 237 242 241
3 79 81 74
3 77 75 78
3 12 11 61
3 109 113 112
3 77 78 145
3 108 138 110
3 221 222 223
3 211 225 208
3 46 58 49
3 232 231 234
3 53 36 51
3 246 248 247
3 88 89 90
3 235 234 236
3 47 44 158
3 183 184 181
3 109 105 107
3 6 66 68
3 134 137 135
3 124 122 125
3 86 87 89
3 122 123 126
3 152 73 153
3 175 167 176
3 219 221 214
3 227 225 226
3 23 27 28
3 106 103 108
3 83 80 85
3 164 166 199
3 21 19 17
3 139 141 136
3 203 210 208
3 156 22 18
3 247 248 224
3 16 54 55
3 36 34 35
3 113 109 130
3 242 244 245
3 208 225 209
3 230 228 231
3 229 228 226
3 45 162 160
3 136 141 137
3 210 211 208
3 101 98 99
3 143 148 149
3 236 239 238
3 46 38 44
3 140 95 139
3 197 200 198
3 109 110 130
3 200 194 201
3 136 137 134
3 87 142 92
3 150 151 148
3 14 13 8
3 239 240 238
3 182 181 180
3 44 45 158
3 32 33 37
3 232 227 230
3 144 145 146
3 212 221 211
3 95 141 139
3 163 161 160
3 209 227 207
3 92 141 95
3 188 194 196
3 233 227 232
3 92 142 141
3 144 80 145
3 248 226 223
3 137 143 149
3 192 193 195
3 221 225 211
3 98 96 97
3 32 35 34
3 120 121 122
3 221 220 222
3 99 103 102
3 73 70 153
3 43 165 164
3 7 9 5
3 140 139 138
3 62 65 64
3 90 91 93
3 122 121 123
3 76 75 72
3 13 11 8
3 145 147 146
3 46 44 47
3 121 119 123
3 91 95 94
3 246 229 248
3 130 110 132
3 16 51 52
3 194 200 197
3 17 19 15
3 180 181 173
3 84 83 85
3 105 106 107
3 174 175 177
3 62 63 65
3 85 144 142
3 178 31 28
3 186 187 184
3 24 34 20
3 48 46 49
3 93 91 94
3 167 165 43
3 12 61 62
3 30 28 31
3 177 175 178
3 120 117 118
3 0 1 2
3 118 119 121
3 151 152 148
3 154 4 82
3 55 61 11
3 217 216 191
3 9 11 12
3 108 140 138
3 41 40 37
3 132 138 136
3 6 10 64
3 157 22 156
3 75 74 72
3 35 38 39
3 76 72 73
3 64 67 66
3 170 171 168
3 90 89 91
3 245 229 246
3 123 129 128
3 194 187 192
3 73 72 70
3 88 86 89
3 66 69 68
3 107 108 110
3 8 0 4
3 53 20 34
3 191 215 213
3 154 82 81
3 45 160 159
3 176 40 41
3 204 202 205
3 127 124 125
3 223 222 224
3 233 234 235
3 51 50 52
3 189 187 186
3 14 8 4
3 16 11 15
3 146 143 144
3 23 28 30
3 178 175 31
3 42 162 45
3 103 100 140
3 82 2 74
3 236 238 235
3 39 48 50
3 17 15 13
3 203 208 206
3 129 113 128
3 187 189 190
3 40 43 42
3 192 190 193
3 30 33 32
3 146 148 143
3 83 79 80
3 82 74 81
3 49 58 56
3 234 231 237
3 6 64 66
3 52 50 49
3 162 163 160
3 213 214 212
3 111 109 112
3 19 24 20
3 85 80 144
3 130 132 131
3 216 218 215
3 169 197 166
3 193 210 195
3 218 219 215
3 70 68 71
3 213 215 214
3 50 48 49
3 91 92 95
3 80 79 77
3 89 92 91
3 244 242 237
3 150 78 76
3 105 102 106
3 1 6 68
3 245 244 229
3 10 12 62
3 64 65 67
3 72 3 70
3 107 106 108
3 8 7 0
3 42 43 162
3 4 0 2
3 110 138 132
3 167 40 176
3 167 172 170
3 101 99 102
3 164 199 163
3 184 188 185
3 124 120 122
3 15 51 16
3 184 187 188
3 181 185 173
3 15 19 20
3 32 34 24
3 120 118 121
3 145 78 147
3 172 173 170
3 98 97 99
3 229 226 248
3 190 191 213
3 70 3 68
3 201 195 203
3 171 185 196
3 141 143 137
3 40 167 43
3 147 150 148
3 134 135 133
3 117 115 118
3 109 107 110
3 1 68 3
3 93 94 96
3 40 38 37
3 233 232 234
3 26 25 21
3 162 164 163
3 57 56 59
3 189 217 191
3 205 206 207
3 206 209 207
3 39 38 48
3 18 13 14
3 193 213 212
3 37 38 35
3 23 30 24
3 197 198 166
3 212 211 210
3 38 40 42
3 115 119 118
3 56 58 59
3 132 134 131
3 87 85 142
3 189 191 190
3 36 39 50
3 77 74 75
3 112 116 115
3 113 131 133
3 43 164 162
3 228 244 231
3 60 54 57
3 126 123 128
3 36 35 39
3 119 116 129
3 105 104 102
3 25 27 23
3 88 81 86
3 9 10 5
3 5 6 1
3 62 61 63
3 200 201 202
3 234 237 236
3 25 23 21
3 84 81 83
3 71 68 69
3 113 130 131
3 183 181 182
3 66 67 69
3 202 206 205
3 150 76 151
3 114 115 117
3 10 62 64
3 116 113 129
3 242 243 241
3 171 196 169
3 11 16 55
3 177 178 179
3 15 53 51
3 7 11 9
3 198 161 199
3 248 223 224
3 187 190 192
3 114 112 115
3 245 246 243
3 105 109 111

POINT_DATA 249
COLOR_SCALARS GocadColor 4
0 1 0.48333 1
0 1 0.48333 1
0 1 0.48333 1
0 1 0.48333 1
0 1 0.48333 1
0 1 0.48333 1
0 1 0.48333 1
0 1 0.48333 1
0 1 0.48333 1
0 1 0.48333 1
0 1 0.48333 1
0 1 0.48333 1
0 1 0.48333 1
0 1 0.48333 1
0 1 0.48333 1
0 1 0.48333 1
0 1 0.48333 1
0 1 0.48333 1
0 1 0.48333 1
0 1 0.48333 1
0 1 0.48333 1
0 1 0.48333 1
0 1 0.48333 1
0 1 0.48333 1
0 1 0.48333 1
0 1 0.48333 1
0 1 0.48333 1
0 1 0.48333 1
0 1 0.48333 1
0 1 0.48333 1
0 1 0.48333 1
0 1 0.48333 1
0 1 0.48333 1
0 1 0.48333 1
0 1 0.48333 1
0 1 0.48333 1
0 1 0.48333 1
0 1 0.48333 1
0 1 0.48333 1
0 1 0.48333 1
0 1 0.48333 1
0 1 0.48333 1
0 1 0.48333 1
0 1 0.48333 1
0 1 0.48333 1
0 1 0.48333 1
0 1 0.48333 1
0 1 0.48333 1
0 1 0.48333 1
0 1 0.48333 1
0 1 0.48333 1
0 1 0.48333 1
0 1 0.48333 1
0 1 0.48333 1
0 1 0.48333 1
0 1 0.48333 1
0 1 0.48333 1
0 1 0.48333 1
0 1 0.48333 1
0 1 0.48333 1
0 1 0.48333 1
0 1 0.48333 1
0 1 0.48333 1
0 1 0.48333 1
0 1 0.48333 1
0 1 0.48333 1
0 1 0.48333 1
0 1 0.48333 1
0 1 0.48333 1
0 1 0.48333 1
0 1 0.48333 1
0 1 0.48333 1
0 1 0.48333 1
0 1 0.48333 1
0 1 0.48333 1
0 1 0.48333 1
0 1 0.48333 1
0 1 0.48333 1
0 1 0.48333 1
0 1 0.48333 1
0 1 0.48333 1
0 1 0.48333 1
0 1 0.48333 1
0 1 0.48333 1
0 1 0.48333 1
0 1 0.48333 1
0 1 0.48333 1
0 1 0.48333 1
0 1 0.48333 1
0 1 0.48333 1
0 1 0.48333 1
0 1 0.48333 1
0 1 0.48333 1
0 1 0.48333 1
0 1 0.48333 1
0 1 0.48333 1
0 1 0.48333 1
0 1 0.48333 1
0 1 0.48333 1
0 1 0.48333 1
0 1 0.48333 1
0 1 0.48333 1
0 1 0.48333 1
0 1 0.48333 1
0 1 0.48333 1
0 1 0.48333 1
0 1 0.48333 1
0 1 0.48333 1
0 1 0.48333 1
0 1 0.48333 1
0 1 0.48333 1
0 1 0.48333 1
0 1 0.48333 1
0 1 0.48333 1
0 1 0.48333 1
0 1 0.48333 1
0 1 0.48333 1
0 1 0.48333 1
0 1 0.48333 1
0 1 0.48333 1
0 1 0.48333 1
0 1 0.48333 1
0 1 0.48333 1
0 1 0.48333 1
0 1 0.48333 1
0 1 0.48333 1
0 1 0.48333 1
0 1 0.48333 1
0 1 0.48333 1
0 1 0.48333 1
0 1 0.48333 1
0 1 0.48333 1
0 1 0.48333 1
0 1 0.48333 1
0 1 0.48333 1
0 1 0.48333 1
0 1 0.48333 1
0 1 0.48333 1
0 1 0.48333 1
0 1 0.48333 1
0 1 0.48333 1
0 1 0.48333 1
0 1 0.48333 1
0 1 0.48333 1
0 1 0.48333 1
0 1 0.48333 1
0 1 0.48333 1
0 1 0.48333 1
0 1 0.48333 1
0 1 0.48333 1
0 1 0.48333 1
0 1 0.48333 1
0 1 0.48333 1
0 1 0.48333 1
0 1 0.48333 1
0 1 0.48333 1
0 1 0.48333 1
0 1 0.48333 1
0 1 0.48333 1
0 1 0.48333 1
0 1 0.48333 1
0 1 0.48333 1
0 1 0.48333 1
0 1 0.48333 1
0 1 0.48333 1
0 1 0.48333 1
0 1 0.48333 1
0 1 0.48333 1
0 1 0.48333 1
0 1 0.48333 1
0 1 0.48333 1
0 1 0.48333 1
0 1 0.48333 1
0 1 0.48333 1
0 1 0.48333 1
0 1 0.48333 1
0 1 0.48333 1
0 1 0.48333 1
0 1 0.48333 1
0 1 0.48333 1
0 1 0.48333 1
0 1 0.48333 1
0 1 0.48333 1
0 1 0.48333 1
0 1 0.48333 1
0 1 0.48333 1
0 1 0.48333 1
0 1 0.48333 1
0 1 0.48333 1
0 1 0.48333 1
0 1 0.48333 1
0 1 0.48333 1
0 1 0.48333 1
0 1 0.48333 1
0 1 0.48333 1
0 1 0.48333 1
0 1 0.48333 1
0 1 0.48333 1
0 1 0.48333 1
0 1 0.48333 1
0 1 0.48333 1
0 1 0.48333 1
0 1 0.48333 1
0 1 0.48333 1
0 1 0.48333 1
0 1 0.48333 1
0 1 0.48333 1
0 1 0.48333 1
0 1 0.48333 1
0 1 0.48333 1
0 1 0.48333 1
0 1 0.48333 1
0 1 0.48333 1
0 1 0.48333 1
0 1 0.48333 1
0 1 0.48333 1
0 1 0.48333 1
0 1 0.48333 1
0 1 0.48333 1
0 1 0.48333 1
0 1 0.48333 1
0 1 0.48333 1
0 1 0.48333 1
0 1 0.48333 1
0 1 0.48333 1
0 1 0.48333 1
0 1 0.48333 1
0 1 0.48333 1
0 1 0.48333 1
0 1 0.48333 1
0 1 0.48333 1
0 1 0.48333 1
0 1 0.48333 1
0 1 0.48333 1
0 1 0.48333 1
0 1 0.48333 1
0 1 0.48333 1
0 1 0.48333 1
0 1 0.48333 1
0 1 0.48333 1
0 1 0.48333 1
0 1 0.48333 1
0 1 0.48333 1
0 1 0.48333 1
0 1 0.48333 1
0 1 0.48333 1
0 1 0.48333 1
0 1 0.48333 1
0 1 0.48333 1

