# vtk DataFile Version 3.0
Gocad TSurf to VTK
ASCII
DATASET POLYDATA
POINTS 446 float
21615750.000 4566105.000 35.000
21615675.000 4566227.500 37.500
21615450.000 4566180.000 -32.500
21615225.000 4566340.000 -63.750
21615675.000 4566020.000 -1.250
21616150.000 4565995.000 202.500
21616025.000 4565927.500 116.250
21616275.000 4566062.500 288.750
21615600.000 4566350.000 40.000
21616350.000 4565950.000 257.500
21616325.000 4565860.000 198.750
21616375.000 4566040.000 316.250
21616350.000 4565950.000 257.500
21616400.000 4566130.000 375.000
21616375.000 4566040.000 316.250
21616500.000 4566007.500 372.500
21616500.000 4566010.000 372.500
21616600.000 4565890.000 370.000
21616600.000 4565885.000 370.000
21616700.000 4565770.000 367.500
21616700.000 4565762.500 367.500
21616325.000 4565860.000 198.750
21616800.000 4565650.000 365.000
21616800.000 4565640.000 365.000
21616300.000 4565770.000 140.000
21616800.000 4565520.000 367.500
21616800.000 4565512.500 367.500
21616800.000 4565390.000 370.000
21616800.000 4565512.500 367.500
21616800.000 4565385.000 370.000
21616650.000 4565545.000 326.250
21616275.000 4565642.500 157.500
21616200.000 4565655.000 143.750
21616500.000 4565450.000 287.500
21616250.000 4565515.000 175.000
21616800.000 4565257.500 372.500
21616800.000 4565385.000 370.000
21616350.000 4565355.000 248.750
21616800.000 4565130.000 375.000
21616800.000 4565257.500 372.500
21616200.000 4565260.000 210.000
21616225.000 4565387.500 192.500
21616300.000 4565107.500 268.750
21616125.000 4565150.000 223.750
21616750.000 4565010.000 392.500
21616400.000 4564955.000 327.500
21616750.000 4565010.000 392.500
21616700.000 4564890.000 410.000
21616750.000 4565010.000 392.500
21616700.000 4564890.000 410.000
21616650.000 4564770.000 427.500
21616650.000 4564770.000 427.500
21616700.000 4564890.000 410.000
21616650.000 4564770.000 427.500
21616500.000 4564802.500 386.250
21615975.000 4564930.000 251.250
21616600.000 4564650.000 445.000
21615900.000 4564820.000 265.000
21616025.000 4564672.500 331.250
21615800.000 4564722.500 272.500
21616550.000 4564545.000 466.250
21616150.000 4564525.000 397.500
21616550.000 4564545.000 466.250
21616500.000 4564440.000 487.500
21616550.000 4564545.000 466.250
21616500.000 4564440.000 487.500
21616450.000 4564335.000 508.750
21616450.000 4564335.000 508.750
21616500.000 4564440.000 487.500
21616450.000 4564335.000 508.750
21616275.000 4564377.500 463.750
21615600.000 4564527.500 287.500
21616400.000 4564230.000 530.000
21615500.000 4564430.000 295.000
21616200.000 4564190.000 495.000
21615525.000 4564340.000 318.750
21616350.000 4564145.000 540.000
21616300.000 4564060.000 550.000
21616350.000 4564145.000 540.000
21616300.000 4564060.000 550.000
21616350.000 4564145.000 540.000
21616300.000 4564060.000 550.000
21616250.000 4563975.000 560.000
21616250.000 4563975.000 560.000
21616250.000 4563975.000 560.000
21616200.000 4563890.000 570.000
21616000.000 4564150.000 460.000
21615800.000 4564110.000 425.000
21615550.000 4564250.000 342.500
21615600.000 4564070.000 390.000
21615575.000 4564160.000 366.250
21615200.000 4564257.500 272.500
21615300.000 4564315.000 280.000
21615100.000 4564200.000 265.000
21615125.000 4564277.500 251.250
21615150.000 4564355.000 237.500
21615175.000 4564432.500 223.750
21615400.000 4564372.500 287.500
21615200.000 4564510.000 210.000
21615300.000 4564602.500 206.250
21615525.000 4564542.500 270.000
21615400.000 4564695.000 202.500
21615550.000 4564655.000 245.000
21615500.000 4564787.500 198.750
21615575.000 4564767.500 220.000
21615700.000 4564625.000 280.000
21615600.000 4564880.000 195.000
21615675.000 4564987.500 185.000
21615900.000 4564942.500 237.500
21615750.000 4565095.000 175.000
21615900.000 4565065.000 210.000
21615825.000 4565202.500 165.000
21615900.000 4565187.500 182.500
21616050.000 4565040.000 237.500
21615900.000 4565310.000 155.000
21616000.000 4565425.000 151.250
21615900.000 4565447.500 123.750
21615900.000 4565585.000 92.500
21616100.000 4565540.000 147.500
21615900.000 4565722.500 61.250
21615900.000 4565860.000 30.000
21615825.000 4565982.500 32.500
21616800.000 4565260.000 372.500
21615750.000 4566450.000 138.750
21616379.414 4566193.805 381.175
21615600.000 4566492.500 55.000
21615600.000 4566635.000 70.000
21615150.000 4566605.000 -46.250
21615300.000 4566710.000 2.500
21615000.000 4566500.000 -95.000
21614975.000 4566657.500 -92.500
21614950.000 4566815.000 -90.000
21614925.000 4566972.500 -87.500
21615450.000 4566815.000 51.250
21614900.000 4567130.000 -85.000
21615600.000 4566920.000 100.000
21615600.000 4566777.500 85.000
21615525.000 4567095.000 102.500
21615750.000 4567025.000 197.500
21615000.000 4567252.500 -36.250
21614850.000 4567302.500 -73.750
21615450.000 4567270.000 105.000
21615100.000 4567375.000 12.500
21615375.000 4567445.000 107.500
21615900.000 4567130.000 295.000
21615200.000 4567497.500 61.250
21614800.000 4567475.000 -62.500
21615300.000 4567620.000 110.000
21614750.000 4567647.500 -51.250
21616050.000 4567235.000 392.500
21616131.258 4567291.883 445.318
21616128.922 4567212.641 436.564
21616109.250 4567368.230 451.685
21616015.672 4567536.504 461.871
21616011.180 4567544.578 462.360
21615375.000 4567742.500 193.750
21615375.000 4567742.500 193.750
21615937.867 4567676.406 470.340
21615900.000 4567725.000 467.500
21615450.000 4567865.000 277.500
21615450.000 4567865.000 277.500
21615750.000 4567917.500 456.250
21615525.000 4567987.500 361.250
21615525.000 4567987.500 361.250
21615600.000 4568110.000 445.000
21615000.000 4568137.500 121.250
21614900.000 4568310.000 125.000
21615100.000 4567965.000 117.500
21614800.000 4568065.000 42.500
21615200.000 4567792.500 113.750
21614750.000 4567942.500 1.250
21614700.000 4567820.000 -40.000
21614500.000 4568025.000 -65.000
21614300.000 4568230.000 -90.000
21614850.000 4568187.500 83.750
21614100.000 4568435.000 -115.000
21613900.000 4568640.000 -140.000
21614075.000 4568770.000 -46.250
21614825.000 4568522.500 152.500
21613900.000 4568837.500 -95.000
21613900.000 4569035.000 -50.000
21614250.000 4568900.000 47.500
21613900.000 4569232.500 -5.000
21614425.000 4569030.000 141.250
21614750.000 4568735.000 180.000
21613900.000 4569430.000 40.000
21614600.000 4569160.000 235.000
21614500.000 4569327.500 215.000
21614675.000 4568947.500 207.500
21615015.844 4569018.613 447.081
21615036.992 4568983.699 448.119
21614954.516 4569142.273 443.770
21614937.992 4569175.582 442.878
21614675.000 4569265.000 308.750
21614887.172 4569278.059 440.134
21614883.367 4569285.730 439.928
21614869.063 4569329.520 443.221
21614750.000 4569370.000 382.500
21614846.031 4569400.012 448.522
21614822.617 4569471.668 453.911
21614400.000 4569495.000 195.000
21614821.625 4569475.160 454.173
21614821.289 4569476.324 454.261
21614300.000 4569662.500 175.000
21614050.000 4569630.000 97.500
21614787.141 4569595.520 463.225
21614779.234 4569623.133 465.302
21614200.000 4569830.000 155.000
21614125.000 4569730.000 126.250
21614400.000 4569892.500 252.500
21614787.148 4569650.531 467.367
21614025.000 4570055.000 108.750
21613000.000 4570300.000 -165.000
21614600.000 4569955.000 350.000
21613850.000 4570280.000 62.500
21614814.305 4569744.531 474.451
21614825.094 4569781.852 477.263
21614849.383 4569865.934 483.599
21614800.000 4570017.500 447.500
21614868.453 4569931.934 488.572
21613675.000 4570505.000 16.250
21614902.430 4570049.508 497.433
21613250.000 4570515.000 -97.500
21613125.000 4570407.500 -131.250
21613375.000 4570622.500 -63.750
21612200.000 4570975.000 -367.500
21613500.000 4570730.000 -30.000
21614893.023 4570114.313 502.309
21611800.000 4571312.500 -468.750
21611400.000 4571650.000 -570.000
21612000.000 4571505.000 -402.500
21613575.000 4570815.000 2.500
21611375.000 4571792.500 -563.750
21611350.000 4571935.000 -557.500
21612600.000 4571360.000 -235.000
21611325.000 4572077.500 -551.250
21613200.000 4571215.000 -67.500
21613650.000 4570900.000 35.000
21611300.000 4572220.000 -545.000
21613800.000 4571070.000 100.000
21613725.000 4570985.000 67.500
21611825.000 4572190.000 -432.500
21613700.000 4571327.500 51.250
21611325.000 4572445.000 -555.000
21611350.000 4572670.000 -565.000
21612350.000 4572160.000 -320.000
21611375.000 4572895.000 -575.000
21612875.000 4572130.000 -207.500
21613600.000 4571585.000 2.500
21611400.000 4573120.000 -585.000
21613400.000 4572100.000 -95.000
21613500.000 4571842.500 -46.250
21613200.000 4572497.500 -176.250
21613850.000 4572100.000 -5.000
21611700.000 4573262.500 -543.750
21613000.000 4572895.000 -257.500
21611450.000 4573402.500 -602.500
21611500.000 4573685.000 -620.000
21612000.000 4573405.000 -502.500
21611550.000 4573967.500 -637.500
21612300.000 4573547.500 -461.250
21612800.000 4573292.500 -338.750
21611600.000 4574250.000 -655.000
21612600.000 4573690.000 -420.000
21612375.000 4573937.500 -506.250
21614750.000 4572100.000 175.000
21614300.000 4572100.000 85.000
21615200.000 4572100.000 265.000
21613100.000 4573462.500 -283.750
21614950.000 4572000.000 226.250
21614700.000 4571900.000 187.500
21615200.000 4571872.500 286.250
21615200.000 4571645.000 307.500
21615200.000 4571872.500 286.250
21615200.000 4571645.000 307.500
21615200.000 4571417.500 328.750
21615200.000 4571417.500 328.750
21615200.000 4571190.000 350.000
21614450.000 4571800.000 148.750
21614200.000 4571700.000 110.000
21614850.000 4571160.000 287.500
21614100.000 4571542.500 107.500
21615175.000 4571010.000 388.750
21615150.000 4570830.000 427.500
21614500.000 4571130.000 225.000
21615125.000 4570650.000 466.250
21614150.000 4571100.000 162.500
21614000.000 4571385.000 105.000
21615100.000 4570470.000 505.000
21613900.000 4571227.500 102.500
21614100.000 4570822.500 211.250
21615098.188 4570462.918 505.726
21615054.742 4570381.852 508.688
21615053.227 4570379.031 508.791
21614400.000 4570575.000 322.500
21615007.891 4570294.434 511.882
21615001.383 4570282.293 512.326
21614700.000 4570327.500 433.750
21614988.672 4570258.559 513.193
21614944.367 4570214.715 509.881
[...]
POINT_DATA 446
COLOR_SCALARS GocadColor 4
0 1 0.48333 1
0 1 0.48333 1
0 1 0.48333 1
0 1 0.48333 1
0 1 0.48333 1
0 1 0.48333 1
0 1 0.48333 1
0 1 0.48333 1
0 1 0.48333 1
0 1 0.48333 1
0 1 0.48333 1
0 1 0.48333 1
0 1 0.48333 1
0 1 0.48333 1
0 1 0.48333 1
0 1 0.48333 1
0 1 0.48333 1
0 1 0.48333 1
0 1 0.48333 1
0 1 0.48333 1
0 1 0.48333 1
0 1 0.48333 1
0 1 0.48333 1
0 1 0.48333 1
0 1 0.48333 1
0 1 0.48333 1
0 1 0.48333 1
0 1 0.48333 1
0 1 0.48333 1
0 1 0.48333 1
0 1 0.48333 1
0 1 0.48333 1
0 1 0.48333 1
0 1 0.48333 1
0 1 0.48333 1
0 1 0.48333 1
0 1 0.48333 1
0 1 0.48333 1
0 1 0.48333 1
0 1 0.48333 1
0 1 0.48333 1
0 1 0.48333 1
0 1 0.48333 1
0 1 0.48333 1
0 1 0.48333 1
0 1 0.48333 1
0 1 0.48333 1
0 1 0.48333 1
0 1 0.48333 1
0 1 0.48333 1
0 1 0.48333 1
0 1 0.48333 1
0 1 0.48333 1
0 1 0.48333 1
0 1 0.48333 1
0 1 0.48333 1
0 1 0.48333 1
0 1 0.48333 1
0 1 0.48333 1
0 1 0.48333 1
0 1 0.48333 1
0 1 0.48333 1
0 1 0.48333 1
0 1 0.48333 1
0 1 0.48333 1
0 1 0.48333 1
0 1 0.48333 1
0 1 0.48333 1
0 1 0.48333 1
0 1 0.48333 1
0 1 0.48333 1
0 1 0.48333 1
0 1 0.48333 1
0 1 0.48333 1
0 1 0.48333 1
0 1 0.48333 1
0 1 0.48333 1
0 1 0.48333 1
0 1 0.48333 1
0 1 0.48333 1
0 1 0.48333 1
0 1 0.48333 1
0 1 0.48333 1
0 1 0.48333 1
0 1 0.48333 1
0 1 0.48333 1
0 1 0.48333 1
0 1 0.48333 1
0 1 0.48333 1
0 1 0.48333 1
0 1 0.48333 1
0 1 0.48333 1
0 1 0.48333 1
0 1 0.48333 1
0 1 0.48333 1
0 1 0.48333 1
0 1 0.48333 1
0 1 0.48333 1
0 1 0.48333 1
0 1 0.48333 1
0 1 0.48333 1
0 1 0.48333 1
0 1 0.48333 1
0 1 0.48333 1
0 1 0.48333 1
0 1 0.48333 1
0 1 0.48333 1
0 1 0.48333 1
0 1 0.48333 1
0 1 0.48333 1
0 1 0.48333 1
0 1 0.48333 1
0 1 0.48333 1
0 1 0.48333 1
0 1 0.48333 1
0 1 0.48333 1
0 1 0.48333 1
0 1 0.48333 1
0 1 0.48333 1
0 1 0.48333 1
0 1 0.48333 1
0 1 0.48333 1
0 1 0.48333 1
0 1 0.48333 1
0 1 0.48333 1
0 1 0.48333 1
0 1 0.48333 1
0 1 0.48333 1
0 1 0.48333 1
0 1 0.48333 1
0 1 0.48333 1
0 1 0.48333 1
0 1 0.48333 1
0 1 0.48333 1
0 1 0.48333 1
0 1 0.48333 1
0 1 0.48333 1
0 1 0.48333 1
0 1 0.48333 1
0 1 0.48333 1
0 1 0.48333 1
0 1 0.48333 1
0 1 0.48333 1
0 1 0.48333 1
0 1 0.48333 1
0 1 0.48333 1
0 1 0.48333 1
0 1 0.48333 1
0 1 0.48333 1
0 1 0.48333 1
0 1 0.48333 1
0 1 0.48333 1
0 1 0.48333 1
0 1 0.48333 1
0 1 0.48333 1
0 1 0.48333 1
0 1 0.48333 1
0 1 0.48333 1
0 1 0.48333 1
0 1 0.48333 1
0 1 0.48333 1
0 1 0.48333 1
0 1 0.48333 1
0 1 0.48333 1
0 1 0.48333 1
0 1 0.48333 1
0 1 0.48333 1
0 1 0.48333 1
0 1 0.48333 1
0 1 0.48333 1
0 1 0.48333 1
0 1 0.48333 1
0 1 0.48333 1
0 1 0.48333 1
0 1 0.48333 1
0 1 0.48333 1
0 1 0.48333 1
0 1 0.48333 1
0 1 0.48333 1
0 1 0.48333 1
0 1 0.48333 1
0 1 0.48333 1
0 1 0.48333 1
0 1 0.48333 1
0 1 0.48333 1
0 1 0.48333 1
0 1 0.48333 1
0 1 0.48333 1
0 1 0.48333 1
0 1 0.48333 1
0 1 0.48333 1
0 1 0.48333 1
0 1 0.48333 1
0 1 0.48333 1
0 1 0.48333 1
0 1 0.48333 1
0 1 0.48333 1
0 1 0.48333 1
0 1 0.48333 1
0 1 0.48333 1
0 1 0.48333 1
0 1 0.48333 1
0 1 0.48333 1
0 1 0.48333 1
0 1 0.48333 1
0 1 0.48333 1
0 1 0.48333 1
0 1 0.48333 1
0 1 0.48333 1
0 1 0.48333 1
0 1 0.48333 1
0 1 0.48333 1
0 1 0.48333 1
0 1 0.48333 1
0 1 0.48333 1
0 1 0.48333 1
0 1 0.48333 1
0 1 0.48333 1
0 1 0.48333 1
0 1 0.48333 1
0 1 0.48333 1
0 1 0.48333 1
0 1 0.48333 1
0 1 0.48333 1
0 1 0.48333 1
0 1 0.48333 1
0 1 0.48333 1
0 1 0.48333 1
0 1 0.48333 1
0 1 0.48333 1
0 1 0.48333 1
0 1 0.48333 1
0 1 0.48333 1
0 1 0.48333 1
0 1 0.48333 1
0 1 0.48333 1
0 1 0.48333 1
0 1 0.48333 1
0 1 0.48333 1
0 1 0.48333 1
0 1 0.48333 1
0 1 0.48333 1
0 1 0.48333 1
0 1 0.48333 1
0 1 0.48333 1
0 1 0.48333 1
0 1 0.48333 1
0 1 0.48333 1
0 1 0.48333 1
0 1 0.48333 1
0 1 0.48333 1
0 1 0.48333 1
0 1 0.48333 1
0 1 0.48333 1
0 1 0.48333 1
0 1 0.48333 1
0 1 0.48333 1
0 1 0.48333 1
0 1 0.48333 1
0 1 0.48333 1
0 1 0.48333 1
0 1 0.48333 1
0 1 0.48333 1
0 1 0.48333 1
0 1 0.48333 1
0 1 0.48333 1
0 1 0.48333 1
0 1 0.48333 1
0 1 0.48333 1
0 1 0.48333 1
0 1 0.48333 1
0 1 0.48333 1
0 1 0.48333 1
0 1 0.48333 1
0 1 0.48333 1
0 1 0.48333 1
0 1 0.48333 1
0 1 0.48333 1
0 1 0.48333 1
0 1 0.48333 1
0 1 0.48333 1
0 1 0.48333 1
0 1 0.48333 1
0 1 0.48333 1
0 1 0.48333 1
0 1 0.48333 1
0 1 0.48333 1
0 1 0.48333 1
0 1 0.48333 1
0 1 0.48333 1
0 1 0.48333 1
0 1 0.48333 1
0 1 0.48333 1
0 1 0.48333 1
0 1 0.48333 1
0 1 0.48333 1
0 1 0.48333 1
0 1 0.48333 1
0 1 0.48333 1
0 1 0.48333 1
0 1 0.48333 1
0 1 0.48333 1
0 1 0.48333 1
0 1 0.48333 1
0 1 0.48333 1
0 1 0.48333 1
0 1 0.48333 1
0 1 0.48333 1
0 1 0.48333 1
0 1 0.48333 1
0 1 0.48333 1
0 1 0.48333 1
0 1 0.48333 1
0 1 0.48333 1
0 1 0.48333 1
0 1 0.48333 1
0 1 0.48333 1
0 1 0.48333 1
0 1 0.48333 1
0 1 0.48333 1
0 1 0.48333 1
0 1 0.48333 1
0 1 0.48333 1
0 1 0.48333 1
0 1 0.48333 1
0 1 0.48333 1
0 1 0.48333 1
0 1 0.48333 1
0 1 0.48333 1
0 1 0.48333 1
0 1 0.48333 1
0 1 0.48333 1
0 1 0.48333 1
0 1 0.48333 1
0 1 0.48333 1
0 1 0.48333 1
0 1 0.48333 1
0 1 0.48333 1
0 1 0.48333 1
0 1 0.48333 1
0 1 0.48333 1
0 1 0.48333 1
0 1 0.48333 1
0 1 0.48333 1
0 1 0.48333 1
0 1 0.48333 1
0 1 0.48333 1
0 1 0.48333 1
0 1 0.48333 1
0 1 0.48333 1
0 1 0.48333 1
0 1 0.48333 1
0 1 0.48333 1
0 1 0.48333 1
0 1 0.48333 1
0 1 0.48333 1
0 1 0.48333 1
0 1 0.48333 1
0 1 0.48333 1
0 1 0.48333 1
0 1 0.48333 1
0 1 0.48333 1
0 1 0.48333 1
0 1 0.48333 1
0 1 0.48333 1
0 1 0.48333 1
0 1 0.48333 1
0 1 0.48333 1
0 1 0.48333 1
0 1 0.48333 1
0 1 0.48333 1
0 1 0.48333 1
0 1 0.48333 1
0 1 0.48333 1
0 1 0.48333 1
0 1 0.48333 1
0 1 0.48333 1
0 1 0.48333 1
0 1 0.48333 1
0 1 0.48333 1
0 1 0.48333 1
0 1 0.48333 1
0 1 0.48333 1
0 1 0.48333 1
0 1 0.48333 1
0 1 0.48333 1
0 1 0.48333 1
0 1 0.48333 1
0 1 0.48333 1
0 1 0.48333 1
0 1 0.48333 1
0 1 0.48333 1
0 1 0.48333 1
0 1 0.48333 1
0 1 0.48333 1
0 1 0.48333 1
0 1 0.48333 1
0 1 0.48333 1
0 1 0.48333 1
0 1 0.48333 1
0 1 0.48333 1
0 1 0.48333 1
0 1 0.48333 1
0 1 0.48333 1
0 1 0.48333 1
0 1 0.48333 1
0 1 0.48333 1
0 1 0.48333 1
0 1 0.48333 1
0 1 0.48333 1
0 1 0.48333 1
0 1 0.48333 1
0 1 0.48333 1
0 1 0.48333 1
0 1 0.48333 1
0 1 0.48333 1
0 1 0.48333 1
0 1 0.48333 1
0 1 0.48333 1
0 1 0.48333 1
0 1 0.48333 1
0 1 0.48333 1
0 1 0.48333 1
0 1 0.48333 1
0 1 0.48333 1
0 1 0.48333 1
0 1 0.48333 1
0 1 0.48333 1
0 1 0.48333 1
0 1 0.48333 1
0 1 0.48333 1
0 1 0.48333 1
0 1 0.48333 1
0 1 0.48333 1
0 1 0.48333 1
0 1 0.48333 1
0 1 0.48333 1
0 1 0.48333 1
0 1 0.48333 1
0 1 0.48333 1
0 1 0.48333 1
0 1 0.48333 1
0 1 0.48333 1
0 1 0.48333 1
0 1 0.48333 1
0 1 0.48333 1

