# vtk DataFile Version 3.0
Gocad TSurf to VTK
ASCII
DATASET POLYDATA
POINTS 179 float
21565300.000 4550820.000 -245.000
21565200.000 4550957.500 -227.500
21565350.000 4550995.000 -227.500
21565200.000 4551120.000 -210.000
21565850.000 4550945.000 -75.000
21565025.000 4550877.500 -251.250
21564850.000 4550635.000 -292.500
21565200.000 4550470.000 -280.000
21566000.000 4550870.000 -30.000
21564675.000 4550392.500 -333.750
21564500.000 4550150.000 -375.000
21565950.000 4550967.500 -57.500
21565850.000 4551162.500 -112.500
21566050.000 4550992.500 -18.750
21566950.000 4551465.000 348.750
21566450.000 4551395.000 126.250
21567200.000 4551500.000 460.000
21567225.000 4551525.000 450.000
21567250.000 4551550.000 440.000
21567225.000 4551517.500 450.000
21567250.000 4551545.000 440.000
21567200.000 4551490.000 460.000
21567275.000 4551572.500 430.000
21567300.000 4551600.000 420.000
21567025.000 4551697.500 291.250
21566200.000 4551517.500 -12.500
21567350.000 4551667.500 408.750
21567400.000 4551735.000 397.500
21567350.000 4551667.500 408.750
21566475.000 4551892.500 33.750
21567450.000 4551802.500 386.250
21567500.000 4551870.000 375.000
21567450.000 4551802.500 386.250
21566200.000 4551990.000 -95.000
21567150.000 4551985.000 222.500
21566200.000 4551832.500 -67.500
21565700.000 4552030.000 -235.000
21566000.000 4551625.000 -117.500
21565725.000 4551837.500 -211.250
21565725.000 4551460.000 -175.000
21565800.000 4551260.000 -140.000
21565450.000 4551615.000 -245.000
21565475.000 4551837.500 -262.500
21565425.000 4551392.500 -227.500
21565350.000 4551590.000 -245.000
21565275.000 4551355.000 -227.500
21565425.000 4551825.000 -262.500
21565500.000 4552060.000 -280.000
21565550.000 4552235.000 -335.000
21565500.000 4552155.000 -311.250
21565800.000 4552380.000 -350.000
21565600.000 4552410.000 -390.000
21566000.000 4552255.000 -235.000
21565850.000 4552755.000 -370.000
21566450.000 4552215.000 -82.500
21566600.000 4552757.500 -120.000
21567650.000 4551965.000 390.000
21567725.000 4552012.500 397.500
21567575.000 4551917.500 382.500
21567800.000 4552060.000 405.000
21567400.000 4552292.500 230.000
21567850.000 4552125.000 412.500
21567900.000 4552190.000 420.000
21567950.000 4552255.000 427.500
21568000.000 4552320.000 435.000
21566200.000 4552990.000 -295.000
21565875.000 4552942.500 -380.000
21567625.000 4552592.500 232.500
21566200.000 4553270.000 -382.500
21568050.000 4552382.500 437.500
21568100.000 4552445.000 440.000
21566875.000 4553137.500 -172.500
21568150.000 4552507.500 442.500
21568200.000 4552570.000 445.000
21566475.000 4553562.500 -493.750
21568000.000 4552772.500 281.250
21566950.000 4553395.000 -292.500
21568250.000 4552612.500 456.250
21568300.000 4552655.000 467.500
21567600.000 4553177.500 -46.250
21568350.000 4552697.500 478.750
21568400.000 4552740.000 490.000
21568000.000 4553130.000 112.500
21567450.000 4553437.500 -315.000
21568300.000 4553005.000 273.750
21567550.000 4553552.500 -525.000
21568450.000 4552770.000 476.250
21568500.000 4552800.000 462.500
21568450.000 4552772.500 476.250
21568550.000 4552837.500 448.750
21568600.000 4552880.000 435.000
21567600.000 4553610.000 -630.000
21568600.000 4552860.000 435.000
21568600.000 4552870.000 435.000
21567100.000 4553950.000 -922.500
21567300.000 4553570.000 -447.500
21567000.000 4554140.000 -1160.000
21566700.000 4554080.000 -1005.000
21566700.000 4554390.000 -1285.000
21566450.000 4554295.000 -1137.500
21566550.000 4554205.000 -1067.500
21566300.000 4554650.000 -1285.000
21566250.000 4554425.000 -1137.500
21566325.000 4554247.500 -1063.750
21565800.000 4555120.000 -1170.000
21565775.000 4554957.500 -1125.000
21565700.000 4554470.000 -990.000
21565700.000 4555007.500 -1107.500
21565600.000 4554895.000 -1045.000
21565450.000 4555010.000 -955.000
21565200.000 4555550.000 -975.000
21565175.000 4555387.500 -916.250
21565150.000 4555225.000 -857.500
21565275.000 4554955.000 -847.500
21565500.000 4554782.500 -982.500
21565125.000 4555062.500 -798.750
21565100.000 4554900.000 -740.000
21565400.000 4554670.000 -920.000
21565075.000 4554725.000 -705.000
21565300.000 4554552.500 -840.000
21565400.000 4554500.000 -861.250
21565050.000 4554550.000 -670.000
21565200.000 4554435.000 -760.000
21565025.000 4554375.000 -635.000
21565100.000 4554317.500 -680.000
21565400.000 4554330.000 -802.500
21565000.000 4554200.000 -600.000
21565400.000 4554160.000 -743.750
21565400.000 4553990.000 -685.000
21565475.000 4554110.000 -761.250
21565100.000 4553977.500 -543.750
21565400.000 4553820.000 -607.500
21565600.000 4553870.000 -740.000
21565200.000 4553755.000 -487.500
21565400.000 4553650.000 -530.000
21565600.000 4553705.000 -662.500
21565300.000 4553532.500 -431.250
21565450.000 4553450.000 -466.250
21565500.000 4553590.000 -557.500
21565400.000 4553310.000 -375.000
21565600.000 4553375.000 -507.500
21565600.000 4553540.000 -585.000
21565600.000 4553210.000 -430.000
21565875.000 4553297.500 -477.500
21565425.000 4553092.500 -382.500
21565575.000 4553017.500 -423.750
21565450.000 4552875.000 -390.000
21565550.000 4552825.000 -417.500
21565700.000 4552785.000 -397.500
21565475.000 4552657.500 -397.500
21565525.000 4552632.500 -411.250
21565500.000 4552440.000 -405.000
21565675.000 4552590.000 -390.000
21565500.000 4552345.000 -373.750
21565500.000 4552250.000 -342.500
21565900.000 4553130.000 -390.000
21566050.000 4553200.000 -386.250
21565750.000 4553652.500 -662.500
21565700.000 4553505.000 -585.000
21565800.000 4553800.000 -740.000
21566100.000 4553910.000 -795.000
21565850.000 4553930.000 -812.500
21566400.000 4554020.000 -850.000
21566100.000 4554100.000 -927.500
21566475.000 4554112.500 -958.750
21566200.000 4554200.000 -990.000
21565950.000 4554190.000 -957.500
21566000.000 4554320.000 -1030.000
21565900.000 4554060.000 -885.000
21565800.000 4554095.000 -885.000
21566000.000 4554000.000 -865.000
21565625.000 4554020.000 -802.500
21565650.000 4554170.000 -865.000
21565625.000 4554350.000 -913.750
21565550.000 4554230.000 -837.500
21566225.000 4554312.500 -1063.750
21565400.000 4551170.000 -210.000
21565550.000 4551095.000 -165.000
21566150.000 4551237.500 3.750

POLYGONS 288 1152
3 121 122 123
3 168 161 169
3 173 172 174
3 134 131 135
3 164 103 100
3 19 16 17
3 95 83 76
3 128 132 131
3 162 95 76
3 177 40 12
3 178 13 12
3 0 1 2
3 67 70 69
3 78 75 79
3 130 128 131
3 25 37 35
3 103 99 100
3 81 86 88
3 162 164 97
3 163 165 162
3 47 49 48
3 173 106 169
3 111 110 109
3 90 89 84
3 143 158 157
3 175 102 103
3 124 122 125
3 70 67 71
3 161 170 160
3 142 139 140
3 126 128 130
3 140 137 141
3 101 98 99
3 163 170 168
3 147 148 150
3 102 99 103
3 105 108 107
3 118 117 119
3 73 71 74
3 148 145 66
3 96 91 94
3 136 134 137
3 104 107 109
3 125 174 127
3 34 56 58
3 75 78 77
3 6 5 0
3 105 104 102
3 25 35 29
3 152 148 53
3 113 109 114
3 162 165 164
3 166 169 167
3 125 173 174
3 155 65 66
3 27 24 29
3 55 64 63
3 2 177 4
3 155 143 156
3 31 33 34
3 22 20 18
3 101 99 102
3 32 30 31
3 151 149 150
3 85 91 84
3 123 122 124
3 86 87 88
3 92 89 90
3 60 62 61
3 2 176 177
3 149 147 150
3 41 39 43
3 23 15 24
3 92 93 89
3 104 101 102
3 81 79 82
3 107 108 109
3 36 38 42
3 59 54 60
3 53 66 55
3 135 159 157
3 160 163 162
3 155 142 143
3 50 48 51
3 16 14 17
3 102 167 106
3 177 176 40
3 50 152 53
3 98 96 97
3 159 161 160
3 65 155 156
3 91 85 94
3 37 25 39
3 11 4 12
3 18 14 15
3 14 18 17
3 51 151 150
3 47 36 42
3 54 33 52
3 165 175 103
3 45 176 3
3 178 12 40
3 15 23 18
3 159 132 171
3 141 157 158
3 144 145 146
3 4 8 0
3 143 68 156
3 41 42 38
3 148 152 150
3 13 11 12
3 169 172 173
3 122 119 120
3 25 40 39
3 5 3 1
3 55 63 60
3 139 142 144
3 97 100 99
3 36 47 48
3 151 51 153
3 82 79 83
3 81 82 84
3 147 145 148
3 115 112 113
3 117 106 120
3 128 127 129
3 143 140 158
3 21 16 19
3 86 81 84
3 27 28 26
3 91 90 84
3 141 158 140
3 132 159 135
3 33 36 52
3 134 138 137
3 105 102 106
3 7 6 0
3 50 51 152
3 112 109 113
3 35 37 38
3 68 159 74
3 137 138 141
3 161 168 170
3 144 142 145
3 152 51 150
3 108 114 109
3 42 46 47
3 83 79 76
3 39 41 38
3 112 111 109
3 116 117 118
3 171 129 172
3 170 163 160
3 29 33 31
3 142 155 66
3 13 8 11
3 117 113 114
3 141 138 135
3 28 23 26
3 38 36 35
3 83 95 85
3 166 167 165
3 166 168 169
3 42 41 46
3 14 13 15
3 34 33 54
3 135 157 141
3 53 148 66
3 102 175 167
3 87 86 84
3 97 94 95
3 73 75 77
3 164 100 97
3 52 36 50
3 65 156 68
3 146 147 149
3 120 173 125
3 56 34 54
3 39 40 43
3 18 20 17
3 119 117 120
3 36 33 35
3 54 59 57
3 177 12 4
3 32 27 30
3 68 157 159
3 11 8 4
3 143 142 140
3 94 85 95
3 23 22 18
3 106 167 169
3 1 3 2
3 165 103 164
3 30 27 29
3 139 136 137
3 79 75 76
3 15 13 178
3 5 1 0
3 127 124 125
3 7 9 6
3 19 17 20
3 82 83 85
3 121 119 122
3 117 114 106
3 154 153 51
3 117 116 113
3 57 56 54
3 71 73 72
3 0 2 4
3 139 137 140
3 60 54 55
3 75 73 74
3 128 129 171
3 64 67 69
3 163 166 165
3 126 124 127
3 80 78 79
3 95 162 97
3 30 29 31
3 127 174 129
3 55 54 52
3 133 134 136
3 99 98 97
3 133 131 134
3 31 34 58
3 72 70 71
3 41 43 44
3 118 119 121
3 29 35 33
3 132 128 171
3 59 60 61
3 104 105 107
3 14 8 13
3 46 41 44
3 8 7 0
3 63 62 60
3 71 68 74
3 162 76 74
3 105 114 108
3 64 65 67
3 48 154 51
3 74 160 162
3 74 159 160
3 131 132 135
3 138 134 135
3 15 178 25
3 85 84 82
3 43 176 45
3 24 15 25
3 169 161 171
3 128 126 127
3 26 23 24
3 2 3 176
3 161 159 171
3 174 172 129
3 96 94 97
3 172 169 171
3 50 36 48
3 76 75 74
3 16 8 14
3 146 145 147
3 9 7 10
3 79 81 80
3 44 43 45
3 175 165 167
3 71 67 68
3 84 89 87
3 52 50 53
3 66 65 55
3 25 178 40
3 38 37 39
3 67 65 68
3 65 64 55
3 163 168 166
3 130 131 133
3 110 104 109
3 116 115 113
3 145 142 66
3 43 40 176
3 125 122 120
3 24 27 26
3 126 123 124
3 154 48 49
3 120 106 173
3 55 52 53
3 68 143 157
3 114 105 106
3 24 25 29

POINT_DATA 179
COLOR_SCALARS GocadColor 4
1 0.74902 0.795026 1
1 0.74902 0.795026 1
1 0.74902 0.795026 1
1 0.74902 0.795026 1
1 0.74902 0.795026 1
1 0.74902 0.795026 1
1 0.74902 0.795026 1
1 0.74902 0.795026 1
1 0.74902 0.795026 1
1 0.74902 0.795026 1
1 0.74902 0.795026 1
1 0.74902 0.795026 1
1 0.74902 0.795026 1
1 0.74902 0.795026 1
1 0.74902 0.795026 1
1 0.74902 0.795026 1
1 0.74902 0.795026 1
1 0.74902 0.795026 1
1 0.74902 0.795026 1
1 0.74902 0.795026 1
1 0.74902 0.795026 1
1 0.74902 0.795026 1
1 0.74902 0.795026 1
1 0.74902 0.795026 1
1 0.74902 0.795026 1
1 0.74902 0.795026 1
1 0.74902 0.795026 1
1 0.74902 0.795026 1
1 0.74902 0.795026 1
1 0.74902 0.795026 1
1 0.74902 0.795026 1
1 0.74902 0.795026 1
1 0.74902 0.795026 1
1 0.74902 0.795026 1
1 0.74902 0.795026 1
1 0.74902 0.795026 1
1 0.74902 0.795026 1
1 0.74902 0.795026 1
1 0.74902 0.795026 1
1 0.74902 0.795026 1
1 0.74902 0.795026 1
1 0.74902 0.795026 1
1 0.74902 0.795026 1
1 0.74902 0.795026 1
1 0.74902 0.795026 1
1 0.74902 0.795026 1
1 0.74902 0.795026 1
1 0.74902 0.795026 1
1 0.74902 0.795026 1
1 0.74902 0.795026 1
1 0.74902 0.795026 1
1 0.74902 0.795026 1
1 0.74902 0.795026 1
1 0.74902 0.795026 1
1 0.74902 0.795026 1
1 0.74902 0.795026 1
1 0.74902 0.795026 1
1 0.74902 0.795026 1
1 0.74902 0.795026 1
1 0.74902 0.795026 1
1 0.74902 0.795026 1
1 0.74902 0.795026 1
1 0.74902 0.795026 1
1 0.74902 0.795026 1
1 0.74902 0.795026 1
1 0.74902 0.795026 1
1 0.74902 0.795026 1
1 0.74902 0.795026 1
1 0.74902 0.795026 1
1 0.74902 0.795026 1
1 0.74902 0.795026 1
1 0.74902 0.795026 1
1 0.74902 0.795026 1
1 0.74902 0.795026 1
1 0.74902 0.795026 1
1 0.74902 0.795026 1
1 0.74902 0.795026 1
1 0.74902 0.795026 1
1 0.74902 0.795026 1
1 0.74902 0.795026 1
1 0.74902 0.795026 1
1 0.74902 0.795026 1
1 0.74902 0.795026 1
1 0.74902 0.795026 1
1 0.74902 0.795026 1
1 0.74902 0.795026 1
1 0.74902 0.795026 1
1 0.74902 0.795026 1
1 0.74902 0.795026 1
1 0.74902 0.795026 1
1 0.74902 0.795026 1
1 0.74902 0.795026 1
1 0.74902 0.795026 1
1 0.74902 0.795026 1
1 0.74902 0.795026 1
1 0.74902 0.795026 1
1 0.74902 0.795026 1
1 0.74902 0.795026 1
1 0.74902 0.795026 1
1 0.74902 0.795026 1
1 0.74902 0.795026 1
1 0.74902 0.795026 1
1 0.74902 0.795026 1
1 0.74902 0.795026 1
1 0.74902 0.795026 1
1 0.74902 0.795026 1
1 0.74902 0.795026 1
1 0.74902 0.795026 1
1 0.74902 0.795026 1
1 0.74902 0.795026 1
1 0.74902 0.795026 1
1 0.74902 0.795026 1
1 0.74902 0.795026 1
1 0.74902 0.795026 1
1 0.74902 0.795026 1
1 0.74902 0.795026 1
1 0.74902 0.795026 1
1 0.74902 0.795026 1
1 0.74902 0.795026 1
1 0.74902 0.795026 1
1 0.74902 0.795026 1
1 0.74902 0.795026 1
1 0.74902 0.795026 1
1 0.74902 0.795026 1
1 0.74902 0.795026 1
1 0.74902 0.795026 1
1 0.74902 0.795026 1
1 0.74902 0.795026 1
1 0.74902 0.795026 1
1 0.74902 0.795026 1
1 0.74902 0.795026 1
1 0.74902 0.795026 1
1 0.74902 0.795026 1
1 0.74902 0.795026 1
1 0.74902 0.795026 1
1 0.74902 0.795026 1
1 0.74902 0.795026 1
1 0.74902 0.795026 1
1 0.74902 0.795026 1
1 0.74902 0.795026 1
1 0.74902 0.795026 1
1 0.74902 0.795026 1
1 0.74902 0.795026 1
1 0.74902 0.795026 1
1 0.74902 0.795026 1
1 0.74902 0.795026 1
1 0.74902 0.795026 1
1 0.74902 0.795026 1
1 0.74902 0.795026 1
1 0.74902 0.795026 1
1 0.74902 0.795026 1
1 0.74902 0.795026 1
1 0.74902 0.795026 1
1 0.74902 0.795026 1
1 0.74902 0.795026 1
1 0.74902 0.795026 1
1 0.74902 0.795026 1
1 0.74902 0.795026 1
1 0.74902 0.795026 1
1 0.74902 0.795026 1
1 0.74902 0.795026 1
1 0.74902 0.795026 1
1 0.74902 0.795026 1
1 0.74902 0.795026 1
1 0.74902 0.795026 1
1 0.74902 0.795026 1
1 0.74902 0.795026 1
1 0.74902 0.795026 1
1 0.74902 0.795026 1
1 0.74902 0.795026 1
1 0.74902 0.795026 1
1 0.74902 0.795026 1
1 0.74902 0.795026 1
1 0.74902 0.795026 1
1 0.74902 0.795026 1
1 0.74902 0.795026 1
1 0.74902 0.795026 1
1 0.74902 0.795026 1
1 0.74902 0.795026 1

