# vtk DataFile Version 3.0
Gocad TSurf to VTK
ASCII
DATASET POLYDATA
POINTS 401 float
21614775.000 4581102.500 -1195.000
21614800.000 4581040.000 -1170.000
21614550.000 4581130.000 -1312.500
21614400.000 4580970.000 -1355.000
21614625.000 4581210.000 -1291.250
21614800.000 4581102.500 -1181.250
21614800.000 4581165.000 -1192.500
21614800.000 4581227.500 -1203.750
21614725.000 4581227.500 -1245.000
21614800.000 4581290.000 -1215.000
21614800.000 4581615.000 -1262.500
21614625.000 4581440.000 -1301.250
21614825.000 4581452.500 -1225.000
21614850.000 4581615.000 -1235.000
21614850.000 4581777.500 -1258.750
21614875.000 4581777.500 -1245.000
21614550.000 4581590.000 -1332.500
21614400.000 4581735.000 -1370.000
21614400.000 4581580.000 -1345.000
21614900.000 4581940.000 -1255.000
21614400.000 4581890.000 -1395.000
21614175.000 4581712.500 -1358.750
21614450.000 4582050.000 -1367.500
21614350.000 4582035.000 -1408.750
21614825.000 4582087.500 -1262.500
21614500.000 4582210.000 -1340.000
21614300.000 4582180.000 -1422.500
21614750.000 4582235.000 -1270.000
21614675.000 4582382.500 -1277.500
21614600.000 4582530.000 -1285.000
21614200.000 4582470.000 -1450.000
21614175.000 4582317.500 -1432.500
21614500.000 4582677.500 -1347.500
21614175.000 4582625.000 -1471.250
21614600.000 4582697.500 -1277.500
21614600.000 4582865.000 -1270.000
21614400.000 4582825.000 -1410.000
21614600.000 4583032.500 -1262.500
21614200.000 4582795.000 -1492.500
21614050.000 4582765.000 -1507.500
21614300.000 4582972.500 -1472.500
21614125.000 4582935.000 -1513.750
21614600.000 4583200.000 -1255.000
21614150.000 4583265.000 -1482.500
21614450.000 4583325.000 -1272.500
21614300.000 4583450.000 -1290.000
21614575.000 4583355.000 -1210.000
21614550.000 4583510.000 -1165.000
21614525.000 4583665.000 -1120.000
21614150.000 4583575.000 -1307.500
21614050.000 4583395.000 -1430.000
21614500.000 4583820.000 -1075.000
21614000.000 4583700.000 -1325.000
21614050.000 4583555.000 -1377.500
21614025.000 4583842.500 -1262.500
21613950.000 4583825.000 -1301.250
21614400.000 4583932.500 -1075.000
21614200.000 4584157.500 -1075.000
21614450.000 4583947.500 -1063.750
21614400.000 4584075.000 -1052.500
21614350.000 4584202.500 -1041.250
21614300.000 4584330.000 -1030.000
21614100.000 4584270.000 -1075.000
21613800.000 4584200.000 -1230.000
21614200.000 4584447.500 -1058.750
21614050.000 4584402.500 -1092.500
21614300.000 4584625.000 -1030.000
21613950.000 4584667.500 -1127.500
21614300.000 4584772.500 -1030.000
21613900.000 4584800.000 -1145.000
21614300.000 4584920.000 -1030.000
21613875.000 4584650.000 -1166.250
21613600.000 4584730.000 -1145.000
21613850.000 4584500.000 -1187.500
21613725.000 4584325.000 -1212.500
21613825.000 4584350.000 -1208.750
21613600.000 4584720.000 -1145.000
21613500.000 4584700.000 -1160.000
21613150.000 4584325.000 -1667.500
21612600.000 4584440.000 -2080.000
21612125.000 4583682.500 -2638.750
21611450.000 4583957.500 -3367.500
21610625.000 4583495.000 -4091.250
21611000.000 4583960.000 -3765.000
21610875.000 4583807.500 -3870.000
21611000.000 4583960.000 -3765.000
21610875.000 4583805.000 -3877.500
21610750.000 4583650.000 -3990.000
21610625.000 4583495.000 -4102.500
21610500.000 4583340.000 -4200.000
21610500.000 4583340.000 -4215.000
21610400.000 4583225.000 -4168.750
21610400.000 4583225.000 -4168.750
21610300.000 4583110.000 -4122.500
21610300.000 4583115.000 -4107.500
21611450.000 4583415.000 -3102.500
21610200.000 4582995.000 -4076.250
21610100.000 4582880.000 -4030.000
21613300.000 4583550.000 -1310.000
21613175.000 4583650.000 -1526.250
21610775.000 4582867.500 -3420.000
21613375.000 4583427.500 -1305.000
21610100.000 4582725.000 -3817.500
21610100.000 4582415.000 -3392.500
21610100.000 4582725.000 -3817.500
21610100.000 4582570.000 -3605.000
21612925.000 4583010.000 -1520.000
21612125.000 4582610.000 -1921.250
21613300.000 4583077.500 -1373.750
21613450.000 4583285.000 -1340.000
21613350.000 4582787.500 -1391.250
21613400.000 4582950.000 -1365.000
21613050.000 4581905.000 -1527.500
21613375.000 4582507.500 -1365.000
21611450.000 4582390.000 -2252.500
21611450.000 4581900.000 -2112.500
21610100.000 4582182.500 -3113.750
21610100.000 4582260.000 -3180.000
21610100.000 4582105.000 -3047.500
21610100.000 4582027.500 -2981.250
21610100.000 4582182.500 -3113.750
21610100.000 4581950.000 -2915.000
21610025.000 4581605.000 -2768.750
21610000.000 4581490.000 -2720.000
21613100.000 4581770.000 -1535.000
21610475.000 4581387.500 -2528.750
21612500.000 4581425.000 -1745.000
21610000.000 4581070.000 -2701.250
21611425.000 4581182.500 -2146.250
21610000.000 4580930.000 -2695.000
21611350.000 4580820.000 -2163.750
21609925.000 4580707.500 -2718.750
21610800.000 4580560.000 -2372.500
21609925.000 4580707.500 -2718.750
21609850.000 4580485.000 -2742.500
21609775.000 4580262.500 -2766.250
21609700.000 4580040.000 -2790.000
21612800.000 4580640.000 -1605.000
21612350.000 4580860.000 -1780.000
21610425.000 4580047.500 -2546.250
21611875.000 4580062.500 -2058.750
21609700.000 4579822.500 -2856.250
21609700.000 4579822.500 -2856.250
21609700.000 4579605.000 -2922.500
21609700.000 4579387.500 -2988.750
21609700.000 4579170.000 -3055.000
21609700.000 4579387.500 -2988.750
21612600.000 4580070.000 -1815.000
21610150.000 4579130.000 -2866.250
21613450.000 4580217.500 -1510.000
21613500.000 4580780.000 -1340.000
21613150.000 4579872.500 -1740.000
21614450.000 4580510.000 -1347.500
21611850.000 4579012.500 -2182.500
21612900.000 4579020.000 -1830.000
21611000.000 4578280.000 -2397.500
21612100.000 4578432.500 -2075.000
21609800.000 4578220.000 -2650.000
21609975.000 4578052.500 -2611.250
21609775.000 4578457.500 -2751.250
21609750.000 4578695.000 -2852.500
21610500.000 4577550.000 -2495.000
21609825.000 4577950.000 -2646.250
21609850.000 4577680.000 -2642.500
21609875.000 4577410.000 -2638.750
21609900.000 4577140.000 -2635.000
21610325.000 4577252.500 -2513.750
21611100.000 4577422.500 -2352.500
21609875.000 4576945.000 -2618.750
21609850.000 4576750.000 -2602.500
21609975.000 4576657.500 -2551.250
21609825.000 4576555.000 -2586.250
21609800.000 4576360.000 -2570.000
21611325.000 4577172.500 -2332.500
21610200.000 4576407.500 -2531.250
21611375.000 4576757.500 -2387.500
21609850.000 4576100.000 -2722.500
21609850.000 4576100.000 -2722.500
21609950.000 4575580.000 -3027.500
21611400.000 4576550.000 -2415.000
21609900.000 4575840.000 -2875.000
21610000.000 4575320.000 -3180.000
21610425.000 4575435.000 -2975.000
21611700.000 4575780.000 -2360.000
21610075.000 4574555.000 -3138.750
21610050.000 4574810.000 -3152.500
21610100.000 4574300.000 -3125.000
21610525.000 4574420.000 -2978.750
21610075.000 4574555.000 -3138.750
21611725.000 4575530.000 -2405.000
21610300.000 4574160.000 -3097.500
21610500.000 4574020.000 -3070.000
21610175.000 4574007.500 -3160.000
21610250.000 4573715.000 -3195.000
21610325.000 4573422.500 -3230.000
21610900.000 4573740.000 -3015.000
21611375.000 4574660.000 -2686.250
21610400.000 4573130.000 -3265.000
21610675.000 4573170.000 -3062.500
21611050.000 4573627.500 -2875.000
21610425.000 4572830.000 -3195.000
21610425.000 4572830.000 -3195.000
21610450.000 4572530.000 -3125.000
21611225.000 4573250.000 -2657.500
21610475.000 4572230.000 -3055.000
21610500.000 4571930.000 -2985.000
21610775.000 4572027.500 -2825.000
21611575.000 4572562.500 -2372.500
21610600.000 4571792.500 -2936.250
21610800.000 4571517.500 -2838.750
21610500.000 4571637.500 -3006.250
21610500.000 4571345.000 -3027.500
21610900.000 4571380.000 -2790.000
21610500.000 4571052.500 -3048.750
21610500.000 4570760.000 -3070.000
21611600.000 4572320.000 -2345.000
21611650.000 4572657.500 -2333.750
21611700.000 4572995.000 -2322.500
21611750.000 4573332.500 -2311.250
21611800.000 4573670.000 -2300.000
21611800.000 4574502.500 -2480.000
21611800.000 4574780.000 -2540.000
21611775.000 4575030.000 -2495.000
21612025.000 4575272.500 -2372.500
21612250.000 4575765.000 -2205.000
21612475.000 4576257.500 -2037.500
21612700.000 4575932.500 -2243.750
21612400.000 4575920.000 -2190.000
21612700.000 4576490.000 -2015.000
21612700.000 4576750.000 -1870.000
21613000.000 4577060.000 -1840.000
21612325.000 4577087.500 -2027.500
21612600.000 4577085.000 -1982.500
21612550.000 4577252.500 -2038.750
21612750.000 4577240.000 -1967.500
21612175.000 4577400.000 -2077.500
21611525.000 4577335.000 -2248.750
21612500.000 4577440.000 -2105.000
21612300.000 4577715.000 -2082.500
21612200.000 4577860.000 -2078.750
21612325.000 4577957.500 -2096.250
21613000.000 4577445.000 -2007.500
21613200.000 4578040.000 -2175.000
21613750.000 4578090.000 -1917.500
21613600.000 4577080.000 -1947.500
21614350.000 4578550.000 -1783.750
21613050.000 4576565.000 -2217.500
21613700.000 4577180.000 -1877.500
21614500.000 4578230.000 -1651.250
21614650.000 4578380.000 -1546.250
21615400.000 4579380.000 -1355.000
21615000.000 4578980.000 -1630.000
21615600.000 4579580.000 -1215.000
21615300.000 4579550.000 -1207.500
21615600.000 4579590.000 -1215.000
21615550.000 4579647.500 -1176.250
21615500.000 4579700.000 -1137.500
21615400.000 4579645.000 -1137.500
21615500.000 4579705.000 -1137.500
21615450.000 4579760.000 -1098.750
21615450.000 4579762.500 -1098.750
21615400.000 4579820.000 -1060.000
21615300.000 4579677.500 -1098.750
21615200.000 4579710.000 -1060.000
21615325.000 4579885.000 -1026.250
21615200.000 4579322.500 -1375.000
21614650.000 4579382.500 -1318.750
21614500.000 4579150.000 -1450.000
21615100.000 4579850.000 -1000.000
21615175.000 4579802.500 -1026.250
21615100.000 4579965.000 -962.500
21615100.000 4580080.000 -925.000
21615150.000 4579895.000 -992.500
21615125.000 4579987.500 -958.750
21615175.000 4580015.000 -958.750
21615250.000 4579950.000 -992.500
21613375.000 4578752.500 -1693.750
21614125.000 4579017.500 -1531.250
21613000.000 4578620.000 -1775.000
21614775.000 4579960.000 -1050.000
21613200.000 4578585.000 -1808.750
21613400.000 4578550.000 -1842.500
21612100.000 4578000.000 -2070.000
[...]
POINT_DATA 401
COLOR_SCALARS GocadColor 4
1 0.74902 0.795026 1
1 0.74902 0.795026 1
1 0.74902 0.795026 1
1 0.74902 0.795026 1
1 0.74902 0.795026 1
1 0.74902 0.795026 1
1 0.74902 0.795026 1
1 0.74902 0.795026 1
1 0.74902 0.795026 1
1 0.74902 0.795026 1
1 0.74902 0.795026 1
1 0.74902 0.795026 1
1 0.74902 0.795026 1
1 0.74902 0.795026 1
1 0.74902 0.795026 1
1 0.74902 0.795026 1
1 0.74902 0.795026 1
1 0.74902 0.795026 1
1 0.74902 0.795026 1
1 0.74902 0.795026 1
1 0.74902 0.795026 1
1 0.74902 0.795026 1
1 0.74902 0.795026 1
1 0.74902 0.795026 1
1 0.74902 0.795026 1
1 0.74902 0.795026 1
1 0.74902 0.795026 1
1 0.74902 0.795026 1
1 0.74902 0.795026 1
1 0.74902 0.795026 1
1 0.74902 0.795026 1
1 0.74902 0.795026 1
1 0.74902 0.795026 1
1 0.74902 0.795026 1
1 0.74902 0.795026 1
1 0.74902 0.795026 1
1 0.74902 0.795026 1
1 0.74902 0.795026 1
1 0.74902 0.795026 1
1 0.74902 0.795026 1
1 0.74902 0.795026 1
1 0.74902 0.795026 1
1 0.74902 0.795026 1
1 0.74902 0.795026 1
1 0.74902 0.795026 1
1 0.74902 0.795026 1
1 0.74902 0.795026 1
1 0.74902 0.795026 1
1 0.74902 0.795026 1
1 0.74902 0.795026 1
1 0.74902 0.795026 1
1 0.74902 0.795026 1
1 0.74902 0.795026 1
1 0.74902 0.795026 1
1 0.74902 0.795026 1
1 0.74902 0.795026 1
1 0.74902 0.795026 1
1 0.74902 0.795026 1
1 0.74902 0.795026 1
1 0.74902 0.795026 1
1 0.74902 0.795026 1
1 0.74902 0.795026 1
1 0.74902 0.795026 1
1 0.74902 0.795026 1
1 0.74902 0.795026 1
1 0.74902 0.795026 1
1 0.74902 0.795026 1
1 0.74902 0.795026 1
1 0.74902 0.795026 1
1 0.74902 0.795026 1
1 0.74902 0.795026 1
1 0.74902 0.795026 1
1 0.74902 0.795026 1
1 0.74902 0.795026 1
1 0.74902 0.795026 1
1 0.74902 0.795026 1
1 0.74902 0.795026 1
1 0.74902 0.795026 1
1 0.74902 0.795026 1
1 0.74902 0.795026 1
1 0.74902 0.795026 1
1 0.74902 0.795026 1
1 0.74902 0.795026 1
1 0.74902 0.795026 1
1 0.74902 0.795026 1
1 0.74902 0.795026 1
1 0.74902 0.795026 1
1 0.74902 0.795026 1
1 0.74902 0.795026 1
1 0.74902 0.795026 1
1 0.74902 0.795026 1
1 0.74902 0.795026 1
1 0.74902 0.795026 1
1 0.74902 0.795026 1
1 0.74902 0.795026 1
1 0.74902 0.795026 1
1 0.74902 0.795026 1
1 0.74902 0.795026 1
1 0.74902 0.795026 1
1 0.74902 0.795026 1
1 0.74902 0.795026 1
1 0.74902 0.795026 1
1 0.74902 0.795026 1
1 0.74902 0.795026 1
1 0.74902 0.795026 1
1 0.74902 0.795026 1
1 0.74902 0.795026 1
1 0.74902 0.795026 1
1 0.74902 0.795026 1
1 0.74902 0.795026 1
1 0.74902 0.795026 1
1 0.74902 0.795026 1
1 0.74902 0.795026 1
1 0.74902 0.795026 1
1 0.74902 0.795026 1
1 0.74902 0.795026 1
1 0.74902 0.795026 1
1 0.74902 0.795026 1
1 0.74902 0.795026 1
1 0.74902 0.795026 1
1 0.74902 0.795026 1
1 0.74902 0.795026 1
1 0.74902 0.795026 1
1 0.74902 0.795026 1
1 0.74902 0.795026 1
1 0.74902 0.795026 1
1 0.74902 0.795026 1
1 0.74902 0.795026 1
1 0.74902 0.795026 1
1 0.74902 0.795026 1
1 0.74902 0.795026 1
1 0.74902 0.795026 1
1 0.74902 0.795026 1
1 0.74902 0.795026 1
1 0.74902 0.795026 1
1 0.74902 0.795026 1
1 0.74902 0.795026 1
1 0.74902 0.795026 1
1 0.74902 0.795026 1
1 0.74902 0.795026 1
1 0.74902 0.795026 1
1 0.74902 0.795026 1
1 0.74902 0.795026 1
1 0.74902 0.795026 1
1 0.74902 0.795026 1
1 0.74902 0.795026 1
1 0.74902 0.795026 1
1 0.74902 0.795026 1
1 0.74902 0.795026 1
1 0.74902 0.795026 1
1 0.74902 0.795026 1
1 0.74902 0.795026 1
1 0.74902 0.795026 1
1 0.74902 0.795026 1
1 0.74902 0.795026 1
1 0.74902 0.795026 1
1 0.74902 0.795026 1
1 0.74902 0.795026 1
1 0.74902 0.795026 1
1 0.74902 0.795026 1
1 0.74902 0.795026 1
1 0.74902 0.795026 1
1 0.74902 0.795026 1
1 0.74902 0.795026 1
1 0.74902 0.795026 1
1 0.74902 0.795026 1
1 0.74902 0.795026 1
1 0.74902 0.795026 1
1 0.74902 0.795026 1
1 0.74902 0.795026 1
1 0.74902 0.795026 1
1 0.74902 0.795026 1
1 0.74902 0.795026 1
1 0.74902 0.795026 1
1 0.74902 0.795026 1
1 0.74902 0.795026 1
1 0.74902 0.795026 1
1 0.74902 0.795026 1
1 0.74902 0.795026 1
1 0.74902 0.795026 1
1 0.74902 0.795026 1
1 0.74902 0.795026 1
1 0.74902 0.795026 1
1 0.74902 0.795026 1
1 0.74902 0.795026 1
1 0.74902 0.795026 1
1 0.74902 0.795026 1
1 0.74902 0.795026 1
1 0.74902 0.795026 1
1 0.74902 0.795026 1
1 0.74902 0.795026 1
1 0.74902 0.795026 1
1 0.74902 0.795026 1
1 0.74902 0.795026 1
1 0.74902 0.795026 1
1 0.74902 0.795026 1
1 0.74902 0.795026 1
1 0.74902 0.795026 1
1 0.74902 0.795026 1
1 0.74902 0.795026 1
1 0.74902 0.795026 1
1 0.74902 0.795026 1
1 0.74902 0.795026 1
1 0.74902 0.795026 1
1 0.74902 0.795026 1
1 0.74902 0.795026 1
1 0.74902 0.795026 1
1 0.74902 0.795026 1
1 0.74902 0.795026 1
1 0.74902 0.795026 1
1 0.74902 0.795026 1
1 0.74902 0.795026 1
1 0.74902 0.795026 1
1 0.74902 0.795026 1
1 0.74902 0.795026 1
1 0.74902 0.795026 1
1 0.74902 0.795026 1
1 0.74902 0.795026 1
1 0.74902 0.795026 1
1 0.74902 0.795026 1
1 0.74902 0.795026 1
1 0.74902 0.795026 1
1 0.74902 0.795026 1
1 0.74902 0.795026 1
1 0.74902 0.795026 1
1 0.74902 0.795026 1
1 0.74902 0.795026 1
1 0.74902 0.795026 1
1 0.74902 0.795026 1
1 0.74902 0.795026 1
1 0.74902 0.795026 1
1 0.74902 0.795026 1
1 0.74902 0.795026 1
1 0.74902 0.795026 1
1 0.74902 0.795026 1
1 0.74902 0.795026 1
1 0.74902 0.795026 1
1 0.74902 0.795026 1
1 0.74902 0.795026 1
1 0.74902 0.795026 1
1 0.74902 0.795026 1
1 0.74902 0.795026 1
1 0.74902 0.795026 1
1 0.74902 0.795026 1
1 0.74902 0.795026 1
1 0.74902 0.795026 1
1 0.74902 0.795026 1
1 0.74902 0.795026 1
1 0.74902 0.795026 1
1 0.74902 0.795026 1
1 0.74902 0.795026 1
1 0.74902 0.795026 1
1 0.74902 0.795026 1
1 0.74902 0.795026 1
1 0.74902 0.795026 1
1 0.74902 0.795026 1
1 0.74902 0.795026 1
1 0.74902 0.795026 1
1 0.74902 0.795026 1
1 0.74902 0.795026 1
1 0.74902 0.795026 1
1 0.74902 0.795026 1
1 0.74902 0.795026 1
1 0.74902 0.795026 1
1 0.74902 0.795026 1
1 0.74902 0.795026 1
1 0.74902 0.795026 1
1 0.74902 0.795026 1
1 0.74902 0.795026 1
1 0.74902 0.795026 1
1 0.74902 0.795026 1
1 0.74902 0.795026 1
1 0.74902 0.795026 1
1 0.74902 0.795026 1
1 0.74902 0.795026 1
1 0.74902 0.795026 1
1 0.74902 0.795026 1
1 0.74902 0.795026 1
1 0.74902 0.795026 1
1 0.74902 0.795026 1
1 0.74902 0.795026 1
1 0.74902 0.795026 1
1 0.74902 0.795026 1
1 0.74902 0.795026 1
1 0.74902 0.795026 1
1 0.74902 0.795026 1
1 0.74902 0.795026 1
1 0.74902 0.795026 1
1 0.74902 0.795026 1
1 0.74902 0.795026 1
1 0.74902 0.795026 1
1 0.74902 0.795026 1
1 0.74902 0.795026 1
1 0.74902 0.795026 1
1 0.74902 0.795026 1
1 0.74902 0.795026 1
1 0.74902 0.795026 1
1 0.74902 0.795026 1
1 0.74902 0.795026 1
1 0.74902 0.795026 1
1 0.74902 0.795026 1
1 0.74902 0.795026 1
1 0.74902 0.795026 1
1 0.74902 0.795026 1
1 0.74902 0.795026 1
1 0.74902 0.795026 1
1 0.74902 0.795026 1
1 0.74902 0.795026 1
1 0.74902 0.795026 1
1 0.74902 0.795026 1
1 0.74902 0.795026 1
1 0.74902 0.795026 1
1 0.74902 0.795026 1
1 0.74902 0.795026 1
1 0.74902 0.795026 1
1 0.74902 0.795026 1
1 0.74902 0.795026 1
1 0.74902 0.795026 1
1 0.74902 0.795026 1
1 0.74902 0.795026 1
1 0.74902 0.795026 1
1 0.74902 0.795026 1
1 0.74902 0.795026 1
1 0.74902 0.795026 1
1 0.74902 0.795026 1
1 0.74902 0.795026 1
1 0.74902 0.795026 1
1 0.74902 0.795026 1
1 0.74902 0.795026 1
1 0.74902 0.795026 1
1 0.74902 0.795026 1
1 0.74902 0.795026 1
1 0.74902 0.795026 1
1 0.74902 0.795026 1
1 0.74902 0.795026 1
1 0.74902 0.795026 1
1 0.74902 0.795026 1
1 0.74902 0.795026 1
1 0.74902 0.795026 1
1 0.74902 0.795026 1
1 0.74902 0.795026 1
1 0.74902 0.795026 1
1 0.74902 0.795026 1
1 0.74902 0.795026 1
1 0.74902 0.795026 1
1 0.74902 0.795026 1
1 0.74902 0.795026 1
1 0.74902 0.795026 1
1 0.74902 0.795026 1
1 0.74902 0.795026 1
1 0.74902 0.795026 1
1 0.74902 0.795026 1
1 0.74902 0.795026 1
1 0.74902 0.795026 1
1 0.74902 0.795026 1
1 0.74902 0.795026 1
1 0.74902 0.795026 1
1 0.74902 0.795026 1
1 0.74902 0.795026 1
1 0.74902 0.795026 1
1 0.74902 0.795026 1
1 0.74902 0.795026 1
1 0.74902 0.795026 1
1 0.74902 0.795026 1
1 0.74902 0.795026 1
1 0.74902 0.795026 1
1 0.74902 0.795026 1
1 0.74902 0.795026 1
1 0.74902 0.795026 1
1 0.74902 0.795026 1
1 0.74902 0.795026 1
1 0.74902 0.795026 1
1 0.74902 0.795026 1
1 0.74902 0.795026 1
1 0.74902 0.795026 1
1 0.74902 0.795026 1
1 0.74902 0.795026 1
1 0.74902 0.795026 1
1 0.74902 0.795026 1
1 0.74902 0.795026 1
1 0.74902 0.795026 1
1 0.74902 0.795026 1
1 0.74902 0.795026 1
1 0.74902 0.795026 1
1 0.74902 0.795026 1
1 0.74902 0.795026 1
1 0.74902 0.795026 1
1 0.74902 0.795026 1
1 0.74902 0.795026 1
1 0.74902 0.795026 1
1 0.74902 0.795026 1
1 0.74902 0.795026 1
1 0.74902 0.795026 1
1 0.74902 0.795026 1
1 0.74902 0.795026 1
1 0.74902 0.795026 1
1 0.74902 0.795026 1
1 0.74902 0.795026 1
1 0.74902 0.795026 1
1 0.74902 0.795026 1
1 0.74902 0.795026 1

