# vtk DataFile Version 3.0
Gocad TSurf to VTK
ASCII
DATASET POLYDATA
POINTS 390 float
21599725.000 4565262.500 -142.500
21600600.000 4564740.000 375.000
21599812.500 4565417.500 -194.375
21600487.500 4565282.500 139.375
21599587.500 4565452.500 -320.000
21600500.000 4564738.750 350.625
21600400.000 4564737.500 326.250
21600525.000 4564717.500 371.875
21600450.000 4564695.000 368.750
21600550.000 4564686.250 385.625
21600500.000 4564632.500 396.250
21600637.500 4564598.750 385.625
21600512.500 4564516.250 406.875
21600762.500 4564661.250 393.125
21600900.000 4564500.000 350.000
21600975.000 4564783.750 465.625
21600975.000 4564577.500 392.500
21601125.000 4564801.250 501.875
21600600.000 4565260.000 195.000
21601075.000 4564767.500 483.750
21601087.500 4564693.750 456.250
21601125.000 4564732.500 477.500
21601162.500 4564771.250 498.750
21601200.000 4564810.000 520.000
21600950.000 4565076.250 505.625
21600917.703 4565110.645 503.768
21600890.086 4565135.477 495.144
21600828.539 4565205.602 498.641
21600700.000 4565342.500 491.250
21600250.000 4565680.000 247.500
21600450.000 4565608.750 476.875
21599700.000 4565877.500 -372.500
21599637.500 4566065.000 -290.625
21599087.500 4566018.750 -648.125
21599437.500 4565973.750 -500.625
21599000.000 4566030.000 -685.000
21599125.000 4566255.000 -681.875
21598675.000 4566328.750 -780.625
21598900.000 4566355.000 -737.500
21598562.500 4566147.500 -856.875
21598162.500 4566597.500 -803.750
21598687.500 4565923.750 -856.875
21598925.000 4565846.250 -731.875
21598537.500 4566032.500 -898.125
21598200.000 4566123.750 -939.375
21598850.000 4565662.500 -778.750
21598612.500 4565465.000 -751.875
21598912.500 4565527.500 -740.000
21599250.000 4565490.000 -530.000
21599400.000 4565030.000 -250.000
21599762.500 4564996.250 18.750
21599350.000 4564730.000 -35.000
21600300.000 4564736.250 301.875
21600000.000 4564732.500 228.750
21600375.000 4564672.500 365.625
21600225.000 4564627.500 359.375
21600400.000 4564525.000 417.500
21600350.000 4564471.250 428.125
21600450.000 4564578.750 406.875
21600450.000 4564475.000 417.500
21600387.500 4564433.750 428.125
21600550.000 4564405.000 405.000
21600462.500 4564381.250 418.750
21600637.500 4564428.750 391.250
21600725.000 4564452.500 377.500
21600812.500 4564476.250 363.750
21600375.000 4564357.500 432.500
21600287.500 4564333.750 446.250
21600200.000 4564310.000 460.000
21600075.000 4564582.500 353.125
21600087.500 4564318.750 431.875
21599912.500 4564537.500 335.625
21599737.500 4564692.500 180.000
21599975.000 4564327.500 403.750
21599862.500 4564336.250 375.625
21599750.000 4564345.000 347.500
21599650.000 4564470.000 292.500
21599550.000 4564555.000 207.500
21599637.500 4564353.750 319.375
21599562.500 4564447.500 278.125
21599525.000 4564362.500 291.250
21599475.000 4564425.000 263.750
21599412.500 4564371.250 263.125
21599425.000 4564467.500 221.250
21599362.500 4564423.750 228.125
21599300.000 4564380.000 235.000
21599362.500 4564467.500 180.000
21599200.000 4564381.250 183.125
21599200.000 4564425.000 135.000
21598800.000 4564660.000 -232.500
21599100.000 4564382.500 131.250
21599000.000 4564383.750 79.375
21599000.000 4564415.000 45.000
21598900.000 4564385.000 27.500
21598800.000 4564386.250 -24.375
21598800.000 4564405.000 -45.000
21598750.000 4564615.000 -223.750
21598700.000 4564387.500 -76.250
21598600.000 4564388.750 -128.125
21598600.000 4564395.000 -135.000
21598500.000 4564390.000 -180.000
21598537.500 4564630.000 -300.000
21597900.000 4564920.000 -655.000
21598625.000 4565093.750 -538.750
21598337.500 4564397.500 -194.375
21597675.000 4564860.000 -596.250
21597612.500 4565117.500 -721.875
21598175.000 4564405.000 -208.750
21598012.500 4564412.500 -223.125
21597550.000 4564685.000 -475.000
21597562.500 4564830.000 -566.875
21597850.000 4564420.000 -237.500
21597687.500 4564427.500 -251.875
21597375.000 4564567.500 -385.000
21597262.500 4564867.500 -549.375
21597525.000 4564435.000 -266.250
21597362.500 4564442.500 -280.625
21597200.000 4564450.000 -295.000
21597050.000 4564772.500 -466.875
21597075.000 4564407.500 -278.750
21596800.000 4564537.500 -356.250
21596575.000 4564770.000 -438.750
21596950.000 4564365.000 -262.500
21596825.000 4564322.500 -246.250
21596700.000 4564280.000 -230.000
21596600.000 4564395.000 -292.500
21596450.000 4564550.000 -347.500
21596575.000 4564237.500 -213.750
21596500.000 4564323.750 -260.625
21596387.500 4564440.000 -301.875
21596450.000 4564195.000 -197.500
21596400.000 4564252.500 -228.750
21596325.000 4564330.000 -256.250
21596325.000 4564152.500 -181.250
21596200.000 4564110.000 -165.000
21596000.000 4564300.000 -265.000
21596350.000 4564645.000 -397.500
21596062.500 4564056.250 -212.500
21595887.500 4564261.250 -294.375
21596075.000 4563978.750 -205.625
21595950.000 4563925.000 -260.000
21595950.000 4563847.500 -246.250
21595825.000 4563832.500 -307.500
21595825.000 4563716.250 -286.875
21595787.500 4563948.750 -307.500
21595650.000 4563895.000 -355.000
21595775.000 4564145.000 -335.000
21595662.500 4564067.500 -370.000
21595662.500 4564183.750 -353.125
21595550.000 4563990.000 -405.000
21595437.500 4563912.500 -440.000
21595437.500 4564106.250 -411.875
21595700.000 4563740.000 -355.000
21595575.000 4563647.500 -402.500
21595700.000 4563585.000 -327.500
21595575.000 4563453.750 -368.125
21595450.000 4563322.500 -408.750
21595325.000 4563462.500 -497.500
21595212.500 4563757.500 -510.000
21595325.000 4563191.250 -449.375
21595200.000 4563370.000 -545.000
21595200.000 4563060.000 -490.000
21595100.000 4563680.000 -545.000
21595100.000 4563990.000 -500.000
21595212.500 4564028.750 -470.625
21595362.500 4564226.250 -438.125
21595000.000 4564310.000 -390.000
21595100.000 4564348.750 -383.125
21595400.000 4564465.000 -362.500
21595000.000 4564810.000 -140.000
21595100.000 4564786.250 -164.375
21595187.500 4564926.250 -166.250
21595350.000 4564835.000 -222.500
21594975.000 4565338.750 192.500
21595275.000 4565213.750 -37.500
21594900.000 4565370.000 250.000
21594912.500 4565435.000 255.625
21594950.000 4565635.000 272.500
21594900.000 4565380.000 250.000
21594962.500 4565698.750 278.125
21594987.500 4565826.250 289.375
21595425.000 4565151.250 -152.500
21595312.500 4565003.750 -183.750
21595000.000 4565890.000 295.000
21595500.000 4565120.000 -210.000
21595112.500 4565887.500 233.750
21595525.000 4564847.500 -263.750
21595700.000 4564860.000 -305.000
21595700.000 4564643.750 -310.625
21595700.000 4565207.500 -276.250
21595925.000 4565088.750 -368.750
21595750.000 4565588.750 -200.625
21596000.000 4565338.750 -375.625
21595075.000 4566045.000 297.500
21595450.000 4565880.000 50.000
21595037.500 4565966.250 296.250
21595787.500 4565872.500 -133.750
21595150.000 4566200.000 300.000
21595187.500 4566271.250 301.250
21595187.500 4566277.500 301.250
21595225.000 4566355.000 302.500
21595262.500 4566432.500 303.750
21595300.000 4566500.000 305.000
21595262.500 4566432.500 303.750
21595300.000 4566510.000 305.000
21595300.000 4566510.000 305.000
21596237.500 4565907.500 -309.375
21595837.500 4566482.500 117.500
21596362.500 4565532.500 -478.125
21596075.000 4565241.250 -411.250
21596612.500 4565782.500 -490.625
21596612.500 4565513.750 -528.125
21596800.000 4565970.000 -500.000
21597025.000 4566037.500 -543.125
21595800.000 4566850.000 305.000
21595737.500 4566807.500 305.000
21595950.000 4566802.500 216.250
21596250.000 4566707.500 38.750
21595875.000 4566967.500 312.500
21595912.500 4567026.250 316.250
21595987.500 4567143.750 323.750
21595987.500 4567143.750 323.750
21596025.000 4567202.500 327.500
21596062.500 4567261.250 331.250
21596100.000 4567320.000 335.000
21596825.000 4566787.500 -223.750
21596125.000 4567372.500 333.125
21596650.000 4567105.000 -42.500
21596150.000 4567425.000 331.250
21596225.000 4567582.500 325.625
21596250.000 4567635.000 323.750
21596275.000 4567687.500 321.875
21597350.000 4566715.000 -540.625
21596300.000 4567740.000 320.000
21597400.000 4566750.000 -560.000
21597325.000 4566127.500 -600.625
21596450.000 4567671.250 208.750
21596900.000 4567465.000 -125.000
21596312.500 4567787.500 318.125
21596325.000 4567835.000 316.250
21596312.500 4567787.500 318.125
21596337.500 4567882.500 314.375
21596387.500 4568072.500 306.875
21596337.500 4567882.500 314.375
21596400.000 4568120.000 305.000
21597500.000 4567190.000 -570.000
21596562.500 4568043.750 211.250
21597575.000 4567310.000 -523.125
21596425.000 4568153.750 310.625
21596450.000 4568187.500 316.250
21596425.000 4568153.750 310.625
21596475.000 4568221.250 321.875
21596500.000 4568255.000 327.500
21596525.000 4568288.750 333.125
21596887.500 4567891.250 23.750
21596525.000 4568288.750 333.125
21596550.000 4568322.500 338.750
21596575.000 4568356.250 344.375
21597537.500 4567586.250 -351.250
21596600.000 4568390.000 350.000
21597700.000 4567510.000 -445.000
21597675.000 4567470.000 -460.625
21596762.500 4568323.750 361.875
21597725.000 4567553.750 -333.750
21597775.000 4567516.250 -370.000
21596925.000 4568257.500 373.750
21597750.000 4567597.500 -222.500
21597087.500 4568191.250 385.625
21597925.000 4567528.750 -220.000
21597250.000 4568125.000 397.500
21597412.500 4568058.750 409.375
21597850.000 4567772.500 222.500
21598225.000 4567553.750 80.000
21597449.320 4568043.738 412.066
21597581.445 4567987.344 416.590
21597743.367 4567918.227 422.136
21597896.039 4567853.063 427.364
21598300.000 4567560.000 155.000
21597923.055 4567842.707 428.285
21598275.000 4567457.500 -65.000
21598250.000 4567355.000 -285.000
21598600.000 4567390.000 70.000
21598550.000 4567360.000 -29.375
21598800.000 4567182.500 -3.125
21598700.000 4567185.000 -120.000
21598800.000 4567260.000 110.000
21598975.000 4567025.000 158.750
21598950.000 4566970.000 22.500
21599000.000 4567080.000 295.000
21599200.000 4566871.250 269.375
21599050.000 4566907.500 51.250
21599200.000 4566940.000 405.000
21599375.000 4566730.000 378.750
21599325.000 4566690.000 206.250
21599450.000 4566673.750 419.375
21599550.000 4566520.000 352.500
[...]
POINT_DATA 390
COLOR_SCALARS GocadColor 4
0.603922 0.803922 0.196078 1
0.603922 0.803922 0.196078 1
0.603922 0.803922 0.196078 1
0.603922 0.803922 0.196078 1
0.603922 0.803922 0.196078 1
0.603922 0.803922 0.196078 1
0.603922 0.803922 0.196078 1
0.603922 0.803922 0.196078 1
0.603922 0.803922 0.196078 1
0.603922 0.803922 0.196078 1
0.603922 0.803922 0.196078 1
0.603922 0.803922 0.196078 1
0.603922 0.803922 0.196078 1
0.603922 0.803922 0.196078 1
0.603922 0.803922 0.196078 1
0.603922 0.803922 0.196078 1
0.603922 0.803922 0.196078 1
0.603922 0.803922 0.196078 1
0.603922 0.803922 0.196078 1
0.603922 0.803922 0.196078 1
0.603922 0.803922 0.196078 1
0.603922 0.803922 0.196078 1
0.603922 0.803922 0.196078 1
0.603922 0.803922 0.196078 1
0.603922 0.803922 0.196078 1
0.603922 0.803922 0.196078 1
0.603922 0.803922 0.196078 1
0.603922 0.803922 0.196078 1
0.603922 0.803922 0.196078 1
0.603922 0.803922 0.196078 1
0.603922 0.803922 0.196078 1
0.603922 0.803922 0.196078 1
0.603922 0.803922 0.196078 1
0.603922 0.803922 0.196078 1
0.603922 0.803922 0.196078 1
0.603922 0.803922 0.196078 1
0.603922 0.803922 0.196078 1
0.603922 0.803922 0.196078 1
0.603922 0.803922 0.196078 1
0.603922 0.803922 0.196078 1
0.603922 0.803922 0.196078 1
0.603922 0.803922 0.196078 1
0.603922 0.803922 0.196078 1
0.603922 0.803922 0.196078 1
0.603922 0.803922 0.196078 1
0.603922 0.803922 0.196078 1
0.603922 0.803922 0.196078 1
0.603922 0.803922 0.196078 1
0.603922 0.803922 0.196078 1
0.603922 0.803922 0.196078 1
0.603922 0.803922 0.196078 1
0.603922 0.803922 0.196078 1
0.603922 0.803922 0.196078 1
0.603922 0.803922 0.196078 1
0.603922 0.803922 0.196078 1
0.603922 0.803922 0.196078 1
0.603922 0.803922 0.196078 1
0.603922 0.803922 0.196078 1
0.603922 0.803922 0.196078 1
0.603922 0.803922 0.196078 1
0.603922 0.803922 0.196078 1
0.603922 0.803922 0.196078 1
0.603922 0.803922 0.196078 1
0.603922 0.803922 0.196078 1
0.603922 0.803922 0.196078 1
0.603922 0.803922 0.196078 1
0.603922 0.803922 0.196078 1
0.603922 0.803922 0.196078 1
0.603922 0.803922 0.196078 1
0.603922 0.803922 0.196078 1
0.603922 0.803922 0.196078 1
0.603922 0.803922 0.196078 1
0.603922 0.803922 0.196078 1
0.603922 0.803922 0.196078 1
0.603922 0.803922 0.196078 1
0.603922 0.803922 0.196078 1
0.603922 0.803922 0.196078 1
0.603922 0.803922 0.196078 1
0.603922 0.803922 0.196078 1
0.603922 0.803922 0.196078 1
0.603922 0.803922 0.196078 1
0.603922 0.803922 0.196078 1
0.603922 0.803922 0.196078 1
0.603922 0.803922 0.196078 1
0.603922 0.803922 0.196078 1
0.603922 0.803922 0.196078 1
0.603922 0.803922 0.196078 1
0.603922 0.803922 0.196078 1
0.603922 0.803922 0.196078 1
0.603922 0.803922 0.196078 1
0.603922 0.803922 0.196078 1
0.603922 0.803922 0.196078 1
0.603922 0.803922 0.196078 1
0.603922 0.803922 0.196078 1
0.603922 0.803922 0.196078 1
0.603922 0.803922 0.196078 1
0.603922 0.803922 0.196078 1
0.603922 0.803922 0.196078 1
0.603922 0.803922 0.196078 1
0.603922 0.803922 0.196078 1
0.603922 0.803922 0.196078 1
0.603922 0.803922 0.196078 1
0.603922 0.803922 0.196078 1
0.603922 0.803922 0.196078 1
0.603922 0.803922 0.196078 1
0.603922 0.803922 0.196078 1
0.603922 0.803922 0.196078 1
0.603922 0.803922 0.196078 1
0.603922 0.803922 0.196078 1
0.603922 0.803922 0.196078 1
0.603922 0.803922 0.196078 1
0.603922 0.803922 0.196078 1
0.603922 0.803922 0.196078 1
0.603922 0.803922 0.196078 1
0.603922 0.803922 0.196078 1
0.603922 0.803922 0.196078 1
0.603922 0.803922 0.196078 1
0.603922 0.803922 0.196078 1
0.603922 0.803922 0.196078 1
0.603922 0.803922 0.196078 1
0.603922 0.803922 0.196078 1
0.603922 0.803922 0.196078 1
0.603922 0.803922 0.196078 1
0.603922 0.803922 0.196078 1
0.603922 0.803922 0.196078 1
0.603922 0.803922 0.196078 1
0.603922 0.803922 0.196078 1
0.603922 0.803922 0.196078 1
0.603922 0.803922 0.196078 1
0.603922 0.803922 0.196078 1
0.603922 0.803922 0.196078 1
0.603922 0.803922 0.196078 1
0.603922 0.803922 0.196078 1
0.603922 0.803922 0.196078 1
0.603922 0.803922 0.196078 1
0.603922 0.803922 0.196078 1
0.603922 0.803922 0.196078 1
0.603922 0.803922 0.196078 1
0.603922 0.803922 0.196078 1
0.603922 0.803922 0.196078 1
0.603922 0.803922 0.196078 1
0.603922 0.803922 0.196078 1
0.603922 0.803922 0.196078 1
0.603922 0.803922 0.196078 1
0.603922 0.803922 0.196078 1
0.603922 0.803922 0.196078 1
0.603922 0.803922 0.196078 1
0.603922 0.803922 0.196078 1
0.603922 0.803922 0.196078 1
0.603922 0.803922 0.196078 1
0.603922 0.803922 0.196078 1
0.603922 0.803922 0.196078 1
0.603922 0.803922 0.196078 1
0.603922 0.803922 0.196078 1
0.603922 0.803922 0.196078 1
0.603922 0.803922 0.196078 1
0.603922 0.803922 0.196078 1
0.603922 0.803922 0.196078 1
0.603922 0.803922 0.196078 1
0.603922 0.803922 0.196078 1
0.603922 0.803922 0.196078 1
0.603922 0.803922 0.196078 1
0.603922 0.803922 0.196078 1
0.603922 0.803922 0.196078 1
0.603922 0.803922 0.196078 1
0.603922 0.803922 0.196078 1
0.603922 0.803922 0.196078 1
0.603922 0.803922 0.196078 1
0.603922 0.803922 0.196078 1
0.603922 0.803922 0.196078 1
0.603922 0.803922 0.196078 1
0.603922 0.803922 0.196078 1
0.603922 0.803922 0.196078 1
0.603922 0.803922 0.196078 1
0.603922 0.803922 0.196078 1
0.603922 0.803922 0.196078 1
0.603922 0.803922 0.196078 1
0.603922 0.803922 0.196078 1
0.603922 0.803922 0.196078 1
0.603922 0.803922 0.196078 1
0.603922 0.803922 0.196078 1
0.603922 0.803922 0.196078 1
0.603922 0.803922 0.196078 1
0.603922 0.803922 0.196078 1
0.603922 0.803922 0.196078 1
0.603922 0.803922 0.196078 1
0.603922 0.803922 0.196078 1
0.603922 0.803922 0.196078 1
0.603922 0.803922 0.196078 1
0.603922 0.803922 0.196078 1
0.603922 0.803922 0.196078 1
0.603922 0.803922 0.196078 1
0.603922 0.803922 0.196078 1
0.603922 0.803922 0.196078 1
0.603922 0.803922 0.196078 1
0.603922 0.803922 0.196078 1
0.603922 0.803922 0.196078 1
0.603922 0.803922 0.196078 1
0.603922 0.803922 0.196078 1
0.603922 0.803922 0.196078 1
0.603922 0.803922 0.196078 1
0.603922 0.803922 0.196078 1
0.603922 0.803922 0.196078 1
0.603922 0.803922 0.196078 1
0.603922 0.803922 0.196078 1
0.603922 0.803922 0.196078 1
0.603922 0.803922 0.196078 1
0.603922 0.803922 0.196078 1
0.603922 0.803922 0.196078 1
0.603922 0.803922 0.196078 1
0.603922 0.803922 0.196078 1
0.603922 0.803922 0.196078 1
0.603922 0.803922 0.196078 1
0.603922 0.803922 0.196078 1
0.603922 0.803922 0.196078 1
0.603922 0.803922 0.196078 1
0.603922 0.803922 0.196078 1
0.603922 0.803922 0.196078 1
0.603922 0.803922 0.196078 1
0.603922 0.803922 0.196078 1
0.603922 0.803922 0.196078 1
0.603922 0.803922 0.196078 1
0.603922 0.803922 0.196078 1
0.603922 0.803922 0.196078 1
0.603922 0.803922 0.196078 1
0.603922 0.803922 0.196078 1
0.603922 0.803922 0.196078 1
0.603922 0.803922 0.196078 1
0.603922 0.803922 0.196078 1
0.603922 0.803922 0.196078 1
0.603922 0.803922 0.196078 1
0.603922 0.803922 0.196078 1
0.603922 0.803922 0.196078 1
0.603922 0.803922 0.196078 1
0.603922 0.803922 0.196078 1
0.603922 0.803922 0.196078 1
0.603922 0.803922 0.196078 1
0.603922 0.803922 0.196078 1
0.603922 0.803922 0.196078 1
0.603922 0.803922 0.196078 1
0.603922 0.803922 0.196078 1
0.603922 0.803922 0.196078 1
0.603922 0.803922 0.196078 1
0.603922 0.803922 0.196078 1
0.603922 0.803922 0.196078 1
0.603922 0.803922 0.196078 1
0.603922 0.803922 0.196078 1
0.603922 0.803922 0.196078 1
0.603922 0.803922 0.196078 1
0.603922 0.803922 0.196078 1
0.603922 0.803922 0.196078 1
0.603922 0.803922 0.196078 1
0.603922 0.803922 0.196078 1
0.603922 0.803922 0.196078 1
0.603922 0.803922 0.196078 1
0.603922 0.803922 0.196078 1
0.603922 0.803922 0.196078 1
0.603922 0.803922 0.196078 1
0.603922 0.803922 0.196078 1
0.603922 0.803922 0.196078 1
0.603922 0.803922 0.196078 1
0.603922 0.803922 0.196078 1
0.603922 0.803922 0.196078 1
0.603922 0.803922 0.196078 1
0.603922 0.803922 0.196078 1
0.603922 0.803922 0.196078 1
0.603922 0.803922 0.196078 1
0.603922 0.803922 0.196078 1
0.603922 0.803922 0.196078 1
0.603922 0.803922 0.196078 1
0.603922 0.803922 0.196078 1
0.603922 0.803922 0.196078 1
0.603922 0.803922 0.196078 1
0.603922 0.803922 0.196078 1
0.603922 0.803922 0.196078 1
0.603922 0.803922 0.196078 1
0.603922 0.803922 0.196078 1
0.603922 0.803922 0.196078 1
0.603922 0.803922 0.196078 1
0.603922 0.803922 0.196078 1
0.603922 0.803922 0.196078 1
0.603922 0.803922 0.196078 1
0.603922 0.803922 0.196078 1
0.603922 0.803922 0.196078 1
0.603922 0.803922 0.196078 1
0.603922 0.803922 0.196078 1
0.603922 0.803922 0.196078 1
0.603922 0.803922 0.196078 1
0.603922 0.803922 0.196078 1
0.603922 0.803922 0.196078 1
0.603922 0.803922 0.196078 1
0.603922 0.803922 0.196078 1
0.603922 0.803922 0.196078 1
0.603922 0.803922 0.196078 1
0.603922 0.803922 0.196078 1
0.603922 0.803922 0.196078 1
0.603922 0.803922 0.196078 1
0.603922 0.803922 0.196078 1
0.603922 0.803922 0.196078 1
0.603922 0.803922 0.196078 1
0.603922 0.803922 0.196078 1
0.603922 0.803922 0.196078 1
0.603922 0.803922 0.196078 1
0.603922 0.803922 0.196078 1
0.603922 0.803922 0.196078 1
0.603922 0.803922 0.196078 1
0.603922 0.803922 0.196078 1
0.603922 0.803922 0.196078 1
0.603922 0.803922 0.196078 1
0.603922 0.803922 0.196078 1
0.603922 0.803922 0.196078 1
0.603922 0.803922 0.196078 1
0.603922 0.803922 0.196078 1
0.603922 0.803922 0.196078 1
0.603922 0.803922 0.196078 1
0.603922 0.803922 0.196078 1
0.603922 0.803922 0.196078 1
0.603922 0.803922 0.196078 1
0.603922 0.803922 0.196078 1
0.603922 0.803922 0.196078 1
0.603922 0.803922 0.196078 1
0.603922 0.803922 0.196078 1
0.603922 0.803922 0.196078 1
0.603922 0.803922 0.196078 1
0.603922 0.803922 0.196078 1
0.603922 0.803922 0.196078 1
0.603922 0.803922 0.196078 1
0.603922 0.803922 0.196078 1
0.603922 0.803922 0.196078 1
0.603922 0.803922 0.196078 1
0.603922 0.803922 0.196078 1
0.603922 0.803922 0.196078 1
0.603922 0.803922 0.196078 1
0.603922 0.803922 0.196078 1
0.603922 0.803922 0.196078 1
0.603922 0.803922 0.196078 1
0.603922 0.803922 0.196078 1
0.603922 0.803922 0.196078 1
0.603922 0.803922 0.196078 1
0.603922 0.803922 0.196078 1
0.603922 0.803922 0.196078 1
0.603922 0.803922 0.196078 1
0.603922 0.803922 0.196078 1
0.603922 0.803922 0.196078 1
0.603922 0.803922 0.196078 1
0.603922 0.803922 0.196078 1
0.603922 0.803922 0.196078 1
0.603922 0.803922 0.196078 1
0.603922 0.803922 0.196078 1
0.603922 0.803922 0.196078 1
0.603922 0.803922 0.196078 1
0.603922 0.803922 0.196078 1
0.603922 0.803922 0.196078 1
0.603922 0.803922 0.196078 1
0.603922 0.803922 0.196078 1
0.603922 0.803922 0.196078 1
0.603922 0.803922 0.196078 1
0.603922 0.803922 0.196078 1
0.603922 0.803922 0.196078 1
0.603922 0.803922 0.196078 1
0.603922 0.803922 0.196078 1
0.603922 0.803922 0.196078 1
0.603922 0.803922 0.196078 1
0.603922 0.803922 0.196078 1
0.603922 0.803922 0.196078 1
0.603922 0.803922 0.196078 1
0.603922 0.803922 0.196078 1
0.603922 0.803922 0.196078 1
0.603922 0.803922 0.196078 1
0.603922 0.803922 0.196078 1
0.603922 0.803922 0.196078 1
0.603922 0.803922 0.196078 1
0.603922 0.803922 0.196078 1
0.603922 0.803922 0.196078 1
0.603922 0.803922 0.196078 1
0.603922 0.803922 0.196078 1
0.603922 0.803922 0.196078 1
0.603922 0.803922 0.196078 1
0.603922 0.803922 0.196078 1
0.603922 0.803922 0.196078 1
0.603922 0.803922 0.196078 1
0.603922 0.803922 0.196078 1
0.603922 0.803922 0.196078 1
0.603922 0.803922 0.196078 1
0.603922 0.803922 0.196078 1
0.603922 0.803922 0.196078 1
0.603922 0.803922 0.196078 1
0.603922 0.803922 0.196078 1
0.603922 0.803922 0.196078 1
0.603922 0.803922 0.196078 1

