# vtk DataFile Version 3.0
Gocad TSurf to VTK
ASCII
DATASET POLYDATA
POINTS 1358 float
21551300.000 4553980.000 -905.000
21551250.000 4553897.500 -893.125
21551200.000 4553980.000 -905.000
21553650.000 4551740.000 -990.000
21553525.000 4551840.000 -1025.000
21553712.500 4551690.000 -972.500
21553587.500 4551790.000 -1007.500
21556500.000 4550230.000 -1078.750
21556650.000 4550065.000 -1084.375
21556550.000 4550175.000 -1080.625
21562900.000 4551340.000 -1590.000
21562875.000 4551227.500 -1551.250
21562862.500 4551171.250 -1531.875
21562887.500 4551283.750 -1570.625
21561900.000 4553215.000 -1800.000
21561900.000 4553327.500 -1800.000
21561900.000 4553290.000 -1800.000
21561750.000 4553381.250 -1795.000
21561900.000 4553252.500 -1800.000
21561600.000 4553322.500 -1790.000
21561900.000 4553290.000 -1800.000
21561750.000 4553381.250 -1795.000
21561450.000 4553263.750 -1785.000
21563475.000 4549345.000 -1128.125
21563450.000 4549370.000 -1138.750
21563500.000 4549320.000 -1117.500
21563425.000 4549395.000 -1149.375
21563400.000 4549420.000 -1160.000
21556400.000 4550433.750 -1048.750
21556400.000 4550465.000 -1040.000
21556400.000 4550527.500 -1022.500
21551900.000 4553390.000 -895.000
21552900.000 4553413.750 -1153.750
21552800.000 4553357.500 -1162.500
21551937.500 4553343.750 -935.000
21553000.000 4553470.000 -1145.000
21552800.000 4553357.500 -1162.500
21553337.500 4553357.500 -1250.000
21552900.000 4553413.750 -1153.750
21553337.500 4553357.500 -1250.000
21550537.500 4553027.500 -1036.875
21550525.000 4552975.000 -1091.250
21550550.000 4553080.000 -982.500
21550562.500 4553132.500 -928.125
21550550.000 4553080.000 -982.500
21560900.000 4556870.000 -960.000
21560825.000 4556682.500 -892.500
21560850.000 4556745.000 -915.000
21563500.000 4552182.500 -1710.000
21562850.000 4552205.000 -1540.000
21563450.000 4552228.750 -1685.000
21555500.000 4550260.000 -1090.000
21555387.500 4550331.250 -1011.250
21555350.000 4550355.000 -985.000
21555237.500 4550426.250 -906.250
21556600.000 4550480.000 -1040.000
21556550.000 4550507.500 -1036.875
21556550.000 4550507.500 -1031.250
21562700.000 4549320.000 -1165.000
21562775.000 4549207.500 -1056.250
21562725.000 4549282.500 -1128.750
21561125.000 4555187.500 -1335.000
21561112.500 4555143.750 -1357.500
21561137.500 4555231.250 -1312.500
21561150.000 4555275.000 -1290.000
21561162.500 4555318.750 -1267.500
21561137.500 4555231.250 -1312.500
21549425.000 4552577.500 -1075.000
21549487.500 4552486.250 -1040.000
21549500.000 4552577.500 -1075.000
21549450.000 4552668.750 -1110.000
21549600.000 4552395.000 -1005.000
21549487.500 4552486.250 -1040.000
21549550.000 4552486.250 -1040.000
21559800.000 4556695.000 -936.875
21559800.000 4556630.000 -926.250
21559800.000 4556760.000 -947.500
21555875.000 4550355.000 -1102.500
21555862.500 4550382.500 -1081.250
21555850.000 4550410.000 -1060.000
21566225.000 4555138.750 -2413.750
21566200.000 4555150.000 -2360.000
21566250.000 4555127.500 -2467.500
21563512.500 4550086.250 -1455.000
21563250.000 4550112.500 -1391.250
21563200.000 4550140.000 -1395.000
21563737.500 4550198.750 -1605.000
21563300.000 4550085.000 -1387.500
21550150.000 4552450.000 -1032.500
21549975.000 4552240.000 -948.750
21550062.500 4552345.000 -990.625
21550237.500 4552555.000 -1074.375
21550062.500 4552345.000 -990.625
21550325.000 4552660.000 -1116.250
21550237.500 4552555.000 -1074.375
21550300.000 4552555.000 -1074.375
21550200.000 4552450.000 -1032.500
21561150.000 4555865.000 -887.500
21560937.500 4555940.000 -898.125
21560962.500 4555860.000 -946.875
21560950.000 4555900.000 -922.500
21563287.500 4549483.750 -1233.125
21563337.500 4549563.750 -1288.125
21563212.500 4549532.500 -1281.875
21563350.000 4549535.000 -1262.500
21560237.500 4557278.750 -955.625
21560225.000 4557342.500 -948.750
21560225.000 4557350.000 -948.750
21560225.000 4557342.500 -948.750
21560612.500 4557235.000 -971.250
21560262.500 4557151.250 -969.375
21560237.500 4557278.750 -955.625
21560225.000 4557342.500 -948.750
21553987.500 4556063.750 -685.625
21555475.000 4555950.000 -978.750
21555350.000 4556020.000 -882.500
21555975.000 4556117.500 -831.250
21554162.500 4556171.250 -576.875
21553900.000 4556010.000 -740.000
21554125.000 4555830.000 -827.500
21553750.000 4555927.500 -738.125
21555300.000 4555658.750 -1080.625
21555975.000 4555636.250 -1142.500
21554462.500 4555560.000 -958.750
21553300.000 4555680.000 -732.500
21554900.000 4555363.750 -1088.125
21554800.000 4555290.000 -1090.000
21556100.000 4555555.000 -1165.000
21556500.000 4555380.000 -1216.250
21556662.500 4555296.250 -1221.875
21557037.500 4555693.750 -1023.125
21556825.000 4555428.750 -1155.625
21556250.000 4555877.500 -1049.375
21556850.000 4555985.000 -842.500
21555725.000 4555798.750 -1097.500
21556200.000 4555991.250 -944.375
21556450.000 4556067.500 -846.875
21556200.000 4556152.500 -788.750
21554975.000 4556230.000 -593.750
21554600.000 4556440.000 -305.000
21554075.000 4556117.500 -631.250
21554425.000 4556332.500 -413.750
21554512.500 4556386.250 -359.375
21554075.000 4556117.500 -631.250
21553900.000 4556010.000 -740.000
21553987.500 4556063.750 -685.625
21554075.000 4556117.500 -631.250
21556025.000 4556405.000 -576.250
21556462.500 4556645.000 -413.750
21554712.500 4556490.000 -298.125
21554825.000 4556540.000 -291.250
21554712.500 4556490.000 -298.125
21554937.500 4556590.000 -284.375
21555762.500 4556622.500 -413.125
21555050.000 4556640.000 -277.500
21555275.000 4556740.000 -263.750
21555387.500 4556790.000 -256.875
21555162.500 4556690.000 -270.625
21555500.000 4556840.000 -250.000
21556500.000 4556700.000 -375.000
21556350.000 4556787.500 -421.250
21556800.000 4556756.250 -491.250
21555550.000 4556866.250 -288.750
21555975.000 4557006.250 -536.875
21555550.000 4556867.500 -288.750
21555600.000 4556895.000 -327.500
21555650.000 4556922.500 -366.250
21555700.000 4556950.000 -405.000
21555750.000 4556977.500 -443.750
21555750.000 4556971.250 -443.750
21555800.000 4557005.000 -482.500
21555800.000 4557005.000 -482.500
21555750.000 4556977.500 -443.750
21555850.000 4557032.500 -521.250
21555900.000 4557060.000 -560.000
21556000.000 4557098.750 -554.375
21557225.000 4556923.750 -663.750
21556000.000 4557107.500 -554.375
21556100.000 4557155.000 -548.750
21557000.000 4557145.000 -600.000
21556200.000 4557202.500 -543.125
21556300.000 4557245.000 -537.500
21556925.000 4557218.750 -578.750
21556300.000 4557250.000 -537.500
21556400.000 4557297.500 -531.875
21556500.000 4557345.000 -526.250
21556600.000 4557392.500 -520.625
21556700.000 4557440.000 -515.000
21557700.000 4557310.000 -695.000
21557662.500 4557251.250 -693.750
21556825.000 4557486.250 -525.625
21557700.000 4557497.500 -659.375
21556825.000 4557486.250 -525.625
21556950.000 4557532.500 -536.250
21557075.000 4557578.750 -546.875
21557200.000 4557625.000 -557.500
21557700.000 4557622.500 -635.625
21557962.500 4557585.000 -646.875
21557325.000 4557671.250 -568.125
21557575.000 4557763.750 -589.375
21557325.000 4557671.250 -568.125
21557450.000 4557717.500 -578.750
21557700.000 4557810.000 -600.000
21558625.000 4557787.500 -720.000
21558662.500 4557621.250 -751.250
21557787.500 4557847.500 -601.875
21557875.000 4557885.000 -603.750
21557962.500 4557922.500 -605.625
21558512.500 4557948.750 -671.250
21558787.500 4557721.250 -765.000
21558050.000 4557960.000 -607.500
21558137.500 4557997.500 -609.375
21558225.000 4558035.000 -611.250
21558400.000 4558110.000 -615.000
21559312.500 4557968.750 -765.000
21558312.500 4558072.500 -613.125
21559400.000 4558010.000 -765.000
21558487.500 4558155.000 -618.125
21559450.000 4557895.000 -776.250
21559325.000 4557695.000 -798.750
21560050.000 4557730.000 -837.500
21559600.000 4557550.000 -810.000
21560425.000 4557802.500 -882.500
21560275.000 4557580.000 -917.500
21559500.000 4558053.750 -768.750
21560387.500 4558078.750 -838.750
21558662.500 4558245.000 -624.375
21559325.000 4558125.000 -733.750
21559250.000 4558240.000 -702.500
21559287.500 4558182.500 -718.125
21559250.000 4558240.000 -702.500
21559250.000 4558240.000 -702.500
21558750.000 4558290.000 -627.500
21558837.500 4558335.000 -630.625
21558925.000 4558380.000 -633.750
21559212.500 4558297.500 -686.875
21559175.000 4558355.000 -671.250
21559012.500 4558425.000 -636.875
21559100.000 4558470.000 -640.000
21560100.000 4558316.250 -791.250
21559250.000 4558240.000 -702.500
21560200.000 4558360.000 -795.000
21559250.000 4558537.500 -621.250
21559400.000 4558605.000 -602.500
21560237.500 4558603.750 -680.625
21560262.500 4558438.750 -766.875
21559550.000 4558672.500 -583.750
21559700.000 4558740.000 -565.000
21559850.000 4558807.500 -546.250
21560387.500 4558596.250 -710.625
21560275.000 4558847.500 -566.250
21560325.000 4558517.500 -738.750
21560850.000 4558640.000 -745.000
21560925.000 4558465.000 -832.500
21560775.000 4558815.000 -657.500
21560937.500 4558715.000 -738.750
21560512.500 4558753.750 -654.375
21560637.500 4558911.250 -598.125
21560262.500 4558766.250 -604.375
21560150.000 4558942.500 -508.750
21560287.500 4558928.750 -528.125
21560300.000 4559010.000 -490.000
21560700.000 4558990.000 -570.000
21560737.500 4558902.500 -613.750
21560900.000 4558970.000 -630.000
21560912.500 4558885.000 -666.250
21560925.000 4558800.000 -702.500
21560000.000 4558875.000 -527.500
21560950.000 4558630.000 -775.000
21560962.500 4558545.000 -811.250
21560975.000 4558460.000 -847.500
21560987.500 4558375.000 -883.750
21561000.000 4558290.000 -920.000
21560937.500 4558242.500 -913.125
21561012.500 4558235.000 -925.000
21561025.000 4558180.000 -930.000
21561037.500 4558125.000 -935.000
21561050.000 4558070.000 -940.000
21560562.500 4557957.500 -871.875
21561062.500 4558015.000 -945.000
21561075.000 4557960.000 -950.000
21561087.500 4557905.000 -955.000
21561100.000 4557850.000 -960.000
21560612.500 4557718.750 -900.625
21561062.500 4557793.750 -960.000
21560950.000 4557625.000 -960.000
21561125.000 4557783.750 -950.000
21561150.000 4557717.500 -940.000
[...]
POINT_DATA 1358
COLOR_SCALARS GocadColor 4
0.529412 0.807843 0.921569 1
0.529412 0.807843 0.921569 1
0.529412 0.807843 0.921569 1
0.529412 0.807843 0.921569 1
0.529412 0.807843 0.921569 1
0.529412 0.807843 0.921569 1
0.529412 0.807843 0.921569 1
0.529412 0.807843 0.921569 1
0.529412 0.807843 0.921569 1
0.529412 0.807843 0.921569 1
0.529412 0.807843 0.921569 1
0.529412 0.807843 0.921569 1
0.529412 0.807843 0.921569 1
0.529412 0.807843 0.921569 1
0.529412 0.807843 0.921569 1
0.529412 0.807843 0.921569 1
0.529412 0.807843 0.921569 1
0.529412 0.807843 0.921569 1
0.529412 0.807843 0.921569 1
0.529412 0.807843 0.921569 1
0.529412 0.807843 0.921569 1
0.529412 0.807843 0.921569 1
0.529412 0.807843 0.921569 1
0.529412 0.807843 0.921569 1
0.529412 0.807843 0.921569 1
0.529412 0.807843 0.921569 1
0.529412 0.807843 0.921569 1
0.529412 0.807843 0.921569 1
0.529412 0.807843 0.921569 1
0.529412 0.807843 0.921569 1
0.529412 0.807843 0.921569 1
0.529412 0.807843 0.921569 1
0.529412 0.807843 0.921569 1
0.529412 0.807843 0.921569 1
0.529412 0.807843 0.921569 1
0.529412 0.807843 0.921569 1
0.529412 0.807843 0.921569 1
0.529412 0.807843 0.921569 1
0.529412 0.807843 0.921569 1
0.529412 0.807843 0.921569 1
0.529412 0.807843 0.921569 1
0.529412 0.807843 0.921569 1
0.529412 0.807843 0.921569 1
0.529412 0.807843 0.921569 1
0.529412 0.807843 0.921569 1
0.529412 0.807843 0.921569 1
0.529412 0.807843 0.921569 1
0.529412 0.807843 0.921569 1
0.529412 0.807843 0.921569 1
0.529412 0.807843 0.921569 1
0.529412 0.807843 0.921569 1
0.529412 0.807843 0.921569 1
0.529412 0.807843 0.921569 1
0.529412 0.807843 0.921569 1
0.529412 0.807843 0.921569 1
0.529412 0.807843 0.921569 1
0.529412 0.807843 0.921569 1
0.529412 0.807843 0.921569 1
0.529412 0.807843 0.921569 1
0.529412 0.807843 0.921569 1
0.529412 0.807843 0.921569 1
0.529412 0.807843 0.921569 1
0.529412 0.807843 0.921569 1
0.529412 0.807843 0.921569 1
0.529412 0.807843 0.921569 1
0.529412 0.807843 0.921569 1
0.529412 0.807843 0.921569 1
0.529412 0.807843 0.921569 1
0.529412 0.807843 0.921569 1
0.529412 0.807843 0.921569 1
0.529412 0.807843 0.921569 1
0.529412 0.807843 0.921569 1
0.529412 0.807843 0.921569 1
0.529412 0.807843 0.921569 1
0.529412 0.807843 0.921569 1
0.529412 0.807843 0.921569 1
0.529412 0.807843 0.921569 1
0.529412 0.807843 0.921569 1
0.529412 0.807843 0.921569 1
0.529412 0.807843 0.921569 1
0.529412 0.807843 0.921569 1
0.529412 0.807843 0.921569 1
0.529412 0.807843 0.921569 1
0.529412 0.807843 0.921569 1
0.529412 0.807843 0.921569 1
0.529412 0.807843 0.921569 1
0.529412 0.807843 0.921569 1
0.529412 0.807843 0.921569 1
0.529412 0.807843 0.921569 1
0.529412 0.807843 0.921569 1
0.529412 0.807843 0.921569 1
0.529412 0.807843 0.921569 1
0.529412 0.807843 0.921569 1
0.529412 0.807843 0.921569 1
0.529412 0.807843 0.921569 1
0.529412 0.807843 0.921569 1
0.529412 0.807843 0.921569 1
0.529412 0.807843 0.921569 1
0.529412 0.807843 0.921569 1
0.529412 0.807843 0.921569 1
0.529412 0.807843 0.921569 1
0.529412 0.807843 0.921569 1
0.529412 0.807843 0.921569 1
0.529412 0.807843 0.921569 1
0.529412 0.807843 0.921569 1
0.529412 0.807843 0.921569 1
0.529412 0.807843 0.921569 1
0.529412 0.807843 0.921569 1
0.529412 0.807843 0.921569 1
0.529412 0.807843 0.921569 1
0.529412 0.807843 0.921569 1
0.529412 0.807843 0.921569 1
0.529412 0.807843 0.921569 1
0.529412 0.807843 0.921569 1
0.529412 0.807843 0.921569 1
0.529412 0.807843 0.921569 1
0.529412 0.807843 0.921569 1
0.529412 0.807843 0.921569 1
0.529412 0.807843 0.921569 1
0.529412 0.807843 0.921569 1
0.529412 0.807843 0.921569 1
0.529412 0.807843 0.921569 1
0.529412 0.807843 0.921569 1
0.529412 0.807843 0.921569 1
0.529412 0.807843 0.921569 1
0.529412 0.807843 0.921569 1
0.529412 0.807843 0.921569 1
0.529412 0.807843 0.921569 1
0.529412 0.807843 0.921569 1
0.529412 0.807843 0.921569 1
0.529412 0.807843 0.921569 1
0.529412 0.807843 0.921569 1
0.529412 0.807843 0.921569 1
0.529412 0.807843 0.921569 1
0.529412 0.807843 0.921569 1
0.529412 0.807843 0.921569 1
0.529412 0.807843 0.921569 1
0.529412 0.807843 0.921569 1
0.529412 0.807843 0.921569 1
0.529412 0.807843 0.921569 1
0.529412 0.807843 0.921569 1
0.529412 0.807843 0.921569 1
0.529412 0.807843 0.921569 1
0.529412 0.807843 0.921569 1
0.529412 0.807843 0.921569 1
0.529412 0.807843 0.921569 1
0.529412 0.807843 0.921569 1
0.529412 0.807843 0.921569 1
0.529412 0.807843 0.921569 1
0.529412 0.807843 0.921569 1
0.529412 0.807843 0.921569 1
0.529412 0.807843 0.921569 1
0.529412 0.807843 0.921569 1
0.529412 0.807843 0.921569 1
0.529412 0.807843 0.921569 1
0.529412 0.807843 0.921569 1
0.529412 0.807843 0.921569 1
0.529412 0.807843 0.921569 1
0.529412 0.807843 0.921569 1
0.529412 0.807843 0.921569 1
0.529412 0.807843 0.921569 1
0.529412 0.807843 0.921569 1
0.529412 0.807843 0.921569 1
0.529412 0.807843 0.921569 1
0.529412 0.807843 0.921569 1
0.529412 0.807843 0.921569 1
0.529412 0.807843 0.921569 1
0.529412 0.807843 0.921569 1
0.529412 0.807843 0.921569 1
0.529412 0.807843 0.921569 1
0.529412 0.807843 0.921569 1
0.529412 0.807843 0.921569 1
0.529412 0.807843 0.921569 1
0.529412 0.807843 0.921569 1
0.529412 0.807843 0.921569 1
0.529412 0.807843 0.921569 1
0.529412 0.807843 0.921569 1
0.529412 0.807843 0.921569 1
0.529412 0.807843 0.921569 1
0.529412 0.807843 0.921569 1
0.529412 0.807843 0.921569 1
0.529412 0.807843 0.921569 1
0.529412 0.807843 0.921569 1
0.529412 0.807843 0.921569 1
0.529412 0.807843 0.921569 1
0.529412 0.807843 0.921569 1
0.529412 0.807843 0.921569 1
0.529412 0.807843 0.921569 1
0.529412 0.807843 0.921569 1
0.529412 0.807843 0.921569 1
0.529412 0.807843 0.921569 1
0.529412 0.807843 0.921569 1
0.529412 0.807843 0.921569 1
0.529412 0.807843 0.921569 1
0.529412 0.807843 0.921569 1
0.529412 0.807843 0.921569 1
0.529412 0.807843 0.921569 1
0.529412 0.807843 0.921569 1
0.529412 0.807843 0.921569 1
0.529412 0.807843 0.921569 1
0.529412 0.807843 0.921569 1
0.529412 0.807843 0.921569 1
0.529412 0.807843 0.921569 1
0.529412 0.807843 0.921569 1
0.529412 0.807843 0.921569 1
0.529412 0.807843 0.921569 1
0.529412 0.807843 0.921569 1
0.529412 0.807843 0.921569 1
0.529412 0.807843 0.921569 1
0.529412 0.807843 0.921569 1
0.529412 0.807843 0.921569 1
0.529412 0.807843 0.921569 1
0.529412 0.807843 0.921569 1
0.529412 0.807843 0.921569 1
0.529412 0.807843 0.921569 1
0.529412 0.807843 0.921569 1
0.529412 0.807843 0.921569 1
0.529412 0.807843 0.921569 1
0.529412 0.807843 0.921569 1
0.529412 0.807843 0.921569 1
0.529412 0.807843 0.921569 1
0.529412 0.807843 0.921569 1
0.529412 0.807843 0.921569 1
0.529412 0.807843 0.921569 1
0.529412 0.807843 0.921569 1
0.529412 0.807843 0.921569 1
0.529412 0.807843 0.921569 1
0.529412 0.807843 0.921569 1
0.529412 0.807843 0.921569 1
0.529412 0.807843 0.921569 1
0.529412 0.807843 0.921569 1
0.529412 0.807843 0.921569 1
0.529412 0.807843 0.921569 1
0.529412 0.807843 0.921569 1
0.529412 0.807843 0.921569 1
0.529412 0.807843 0.921569 1
0.529412 0.807843 0.921569 1
0.529412 0.807843 0.921569 1
0.529412 0.807843 0.921569 1
0.529412 0.807843 0.921569 1
0.529412 0.807843 0.921569 1
0.529412 0.807843 0.921569 1
0.529412 0.807843 0.921569 1
0.529412 0.807843 0.921569 1
0.529412 0.807843 0.921569 1
0.529412 0.807843 0.921569 1
0.529412 0.807843 0.921569 1
0.529412 0.807843 0.921569 1
0.529412 0.807843 0.921569 1
0.529412 0.807843 0.921569 1
0.529412 0.807843 0.921569 1
0.529412 0.807843 0.921569 1
0.529412 0.807843 0.921569 1
0.529412 0.807843 0.921569 1
0.529412 0.807843 0.921569 1
0.529412 0.807843 0.921569 1
0.529412 0.807843 0.921569 1
0.529412 0.807843 0.921569 1
0.529412 0.807843 0.921569 1
0.529412 0.807843 0.921569 1
0.529412 0.807843 0.921569 1
0.529412 0.807843 0.921569 1
0.529412 0.807843 0.921569 1
0.529412 0.807843 0.921569 1
0.529412 0.807843 0.921569 1
0.529412 0.807843 0.921569 1
0.529412 0.807843 0.921569 1
0.529412 0.807843 0.921569 1
0.529412 0.807843 0.921569 1
0.529412 0.807843 0.921569 1
0.529412 0.807843 0.921569 1
0.529412 0.807843 0.921569 1
0.529412 0.807843 0.921569 1
0.529412 0.807843 0.921569 1
0.529412 0.807843 0.921569 1
0.529412 0.807843 0.921569 1
0.529412 0.807843 0.921569 1
0.529412 0.807843 0.921569 1
0.529412 0.807843 0.921569 1
0.529412 0.807843 0.921569 1
0.529412 0.807843 0.921569 1
0.529412 0.807843 0.921569 1
0.529412 0.807843 0.921569 1
0.529412 0.807843 0.921569 1
0.529412 0.807843 0.921569 1
0.529412 0.807843 0.921569 1
0.529412 0.807843 0.921569 1
0.529412 0.807843 0.921569 1
0.529412 0.807843 0.921569 1
0.529412 0.807843 0.921569 1
0.529412 0.807843 0.921569 1
0.529412 0.807843 0.921569 1
0.529412 0.807843 0.921569 1
0.529412 0.807843 0.921569 1
0.529412 0.807843 0.921569 1
0.529412 0.807843 0.921569 1
0.529412 0.807843 0.921569 1
0.529412 0.807843 0.921569 1
0.529412 0.807843 0.921569 1
0.529412 0.807843 0.921569 1
0.529412 0.807843 0.921569 1
0.529412 0.807843 0.921569 1
0.529412 0.807843 0.921569 1
0.529412 0.807843 0.921569 1
0.529412 0.807843 0.921569 1
0.529412 0.807843 0.921569 1
0.529412 0.807843 0.921569 1
0.529412 0.807843 0.921569 1
0.529412 0.807843 0.921569 1
0.529412 0.807843 0.921569 1
0.529412 0.807843 0.921569 1
0.529412 0.807843 0.921569 1
0.529412 0.807843 0.921569 1
0.529412 0.807843 0.921569 1
0.529412 0.807843 0.921569 1
0.529412 0.807843 0.921569 1
0.529412 0.807843 0.921569 1
0.529412 0.807843 0.921569 1
0.529412 0.807843 0.921569 1
0.529412 0.807843 0.921569 1
0.529412 0.807843 0.921569 1
0.529412 0.807843 0.921569 1
0.529412 0.807843 0.921569 1
0.529412 0.807843 0.921569 1
0.529412 0.807843 0.921569 1
0.529412 0.807843 0.921569 1
0.529412 0.807843 0.921569 1
0.529412 0.807843 0.921569 1
0.529412 0.807843 0.921569 1
0.529412 0.807843 0.921569 1
0.529412 0.807843 0.921569 1
0.529412 0.807843 0.921569 1
0.529412 0.807843 0.921569 1
0.529412 0.807843 0.921569 1
0.529412 0.807843 0.921569 1
0.529412 0.807843 0.921569 1
0.529412 0.807843 0.921569 1
0.529412 0.807843 0.921569 1
0.529412 0.807843 0.921569 1
0.529412 0.807843 0.921569 1
0.529412 0.807843 0.921569 1
0.529412 0.807843 0.921569 1
0.529412 0.807843 0.921569 1
0.529412 0.807843 0.921569 1
0.529412 0.807843 0.921569 1
0.529412 0.807843 0.921569 1
0.529412 0.807843 0.921569 1
0.529412 0.807843 0.921569 1
0.529412 0.807843 0.921569 1
0.529412 0.807843 0.921569 1
0.529412 0.807843 0.921569 1
0.529412 0.807843 0.921569 1
0.529412 0.807843 0.921569 1
0.529412 0.807843 0.921569 1
0.529412 0.807843 0.921569 1
0.529412 0.807843 0.921569 1
0.529412 0.807843 0.921569 1
0.529412 0.807843 0.921569 1
0.529412 0.807843 0.921569 1
0.529412 0.807843 0.921569 1
0.529412 0.807843 0.921569 1
0.529412 0.807843 0.921569 1
0.529412 0.807843 0.921569 1
0.529412 0.807843 0.921569 1
0.529412 0.807843 0.921569 1
0.529412 0.807843 0.921569 1
0.529412 0.807843 0.921569 1
0.529412 0.807843 0.921569 1
0.529412 0.807843 0.921569 1
0.529412 0.807843 0.921569 1
0.529412 0.807843 0.921569 1
0.529412 0.807843 0.921569 1
0.529412 0.807843 0.921569 1
0.529412 0.807843 0.921569 1
0.529412 0.807843 0.921569 1
0.529412 0.807843 0.921569 1
0.529412 0.807843 0.921569 1
0.529412 0.807843 0.921569 1
0.529412 0.807843 0.921569 1
0.529412 0.807843 0.921569 1
0.529412 0.807843 0.921569 1
0.529412 0.807843 0.921569 1
0.529412 0.807843 0.921569 1
0.529412 0.807843 0.921569 1
0.529412 0.807843 0.921569 1
0.529412 0.807843 0.921569 1
0.529412 0.807843 0.921569 1
0.529412 0.807843 0.921569 1
0.529412 0.807843 0.921569 1
0.529412 0.807843 0.921569 1
0.529412 0.807843 0.921569 1
0.529412 0.807843 0.921569 1
0.529412 0.807843 0.921569 1
0.529412 0.807843 0.921569 1
0.529412 0.807843 0.921569 1
0.529412 0.807843 0.921569 1
0.529412 0.807843 0.921569 1
0.529412 0.807843 0.921569 1
0.529412 0.807843 0.921569 1
0.529412 0.807843 0.921569 1
0.529412 0.807843 0.921569 1
0.529412 0.807843 0.921569 1
0.529412 0.807843 0.921569 1
0.529412 0.807843 0.921569 1
0.529412 0.807843 0.921569 1
0.529412 0.807843 0.921569 1
0.529412 0.807843 0.921569 1
0.529412 0.807843 0.921569 1
0.529412 0.807843 0.921569 1
0.529412 0.807843 0.921569 1
0.529412 0.807843 0.921569 1
0.529412 0.807843 0.921569 1
0.529412 0.807843 0.921569 1
0.529412 0.807843 0.921569 1
0.529412 0.807843 0.921569 1
0.529412 0.807843 0.921569 1
0.529412 0.807843 0.921569 1
0.529412 0.807843 0.921569 1
0.529412 0.807843 0.921569 1
0.529412 0.807843 0.921569 1
0.529412 0.807843 0.921569 1
0.529412 0.807843 0.921569 1
0.529412 0.807843 0.921569 1
0.529412 0.807843 0.921569 1
0.529412 0.807843 0.921569 1
0.529412 0.807843 0.921569 1
0.529412 0.807843 0.921569 1
0.529412 0.807843 0.921569 1
0.529412 0.807843 0.921569 1
0.529412 0.807843 0.921569 1
0.529412 0.807843 0.921569 1
0.529412 0.807843 0.921569 1
0.529412 0.807843 0.921569 1
0.529412 0.807843 0.921569 1
0.529412 0.807843 0.921569 1
0.529412 0.807843 0.921569 1
0.529412 0.807843 0.921569 1
0.529412 0.807843 0.921569 1
0.529412 0.807843 0.921569 1
0.529412 0.807843 0.921569 1
0.529412 0.807843 0.921569 1
0.529412 0.807843 0.921569 1
0.529412 0.807843 0.921569 1
0.529412 0.807843 0.921569 1
0.529412 0.807843 0.921569 1
0.529412 0.807843 0.921569 1
0.529412 0.807843 0.921569 1
0.529412 0.807843 0.921569 1
0.529412 0.807843 0.921569 1
0.529412 0.807843 0.921569 1
0.529412 0.807843 0.921569 1
0.529412 0.807843 0.921569 1
0.529412 0.807843 0.921569 1
0.529412 0.807843 0.921569 1
0.529412 0.807843 0.921569 1
0.529412 0.807843 0.921569 1
0.529412 0.807843 0.921569 1
0.529412 0.807843 0.921569 1
0.529412 0.807843 0.921569 1
0.529412 0.807843 0.921569 1
0.529412 0.807843 0.921569 1
0.529412 0.807843 0.921569 1
0.529412 0.807843 0.921569 1
0.529412 0.807843 0.921569 1
0.529412 0.807843 0.921569 1
0.529412 0.807843 0.921569 1
0.529412 0.807843 0.921569 1
0.529412 0.807843 0.921569 1
0.529412 0.807843 0.921569 1
0.529412 0.807843 0.921569 1
0.529412 0.807843 0.921569 1
0.529412 0.807843 0.921569 1
0.529412 0.807843 0.921569 1
0.529412 0.807843 0.921569 1
0.529412 0.807843 0.921569 1
0.529412 0.807843 0.921569 1
0.529412 0.807843 0.921569 1
0.529412 0.807843 0.921569 1
0.529412 0.807843 0.921569 1
0.529412 0.807843 0.921569 1
0.529412 0.807843 0.921569 1
0.529412 0.807843 0.921569 1
0.529412 0.807843 0.921569 1
0.529412 0.807843 0.921569 1
0.529412 0.807843 0.921569 1
0.529412 0.807843 0.921569 1
0.529412 0.807843 0.921569 1
0.529412 0.807843 0.921569 1
0.529412 0.807843 0.921569 1
0.529412 0.807843 0.921569 1
0.529412 0.807843 0.921569 1
0.529412 0.807843 0.921569 1
0.529412 0.807843 0.921569 1
0.529412 0.807843 0.921569 1
0.529412 0.807843 0.921569 1
0.529412 0.807843 0.921569 1
0.529412 0.807843 0.921569 1
0.529412 0.807843 0.921569 1
0.529412 0.807843 0.921569 1
0.529412 0.807843 0.921569 1
0.529412 0.807843 0.921569 1
0.529412 0.807843 0.921569 1
0.529412 0.807843 0.921569 1
0.529412 0.807843 0.921569 1
0.529412 0.807843 0.921569 1
0.529412 0.807843 0.921569 1
0.529412 0.807843 0.921569 1
0.529412 0.807843 0.921569 1
0.529412 0.807843 0.921569 1
0.529412 0.807843 0.921569 1
0.529412 0.807843 0.921569 1
0.529412 0.807843 0.921569 1
0.529412 0.807843 0.921569 1
0.529412 0.807843 0.921569 1
0.529412 0.807843 0.921569 1
0.529412 0.807843 0.921569 1
0.529412 0.807843 0.921569 1
0.529412 0.807843 0.921569 1
0.529412 0.807843 0.921569 1
0.529412 0.807843 0.921569 1
0.529412 0.807843 0.921569 1
0.529412 0.807843 0.921569 1
0.529412 0.807843 0.921569 1
0.529412 0.807843 0.921569 1
0.529412 0.807843 0.921569 1
0.529412 0.807843 0.921569 1
0.529412 0.807843 0.921569 1
0.529412 0.807843 0.921569 1
0.529412 0.807843 0.921569 1
0.529412 0.807843 0.921569 1
0.529412 0.807843 0.921569 1
0.529412 0.807843 0.921569 1
0.529412 0.807843 0.921569 1
0.529412 0.807843 0.921569 1
0.529412 0.807843 0.921569 1
0.529412 0.807843 0.921569 1
0.529412 0.807843 0.921569 1
0.529412 0.807843 0.921569 1
0.529412 0.807843 0.921569 1
0.529412 0.807843 0.921569 1
0.529412 0.807843 0.921569 1
0.529412 0.807843 0.921569 1
0.529412 0.807843 0.921569 1
0.529412 0.807843 0.921569 1
0.529412 0.807843 0.921569 1
0.529412 0.807843 0.921569 1
0.529412 0.807843 0.921569 1
0.529412 0.807843 0.921569 1
0.529412 0.807843 0.921569 1
0.529412 0.807843 0.921569 1
0.529412 0.807843 0.921569 1
0.529412 0.807843 0.921569 1
0.529412 0.807843 0.921569 1
0.529412 0.807843 0.921569 1
0.529412 0.807843 0.921569 1
0.529412 0.807843 0.921569 1
0.529412 0.807843 0.921569 1
0.529412 0.807843 0.921569 1
0.529412 0.807843 0.921569 1
0.529412 0.807843 0.921569 1
0.529412 0.807843 0.921569 1
0.529412 0.807843 0.921569 1
0.529412 0.807843 0.921569 1
0.529412 0.807843 0.921569 1
0.529412 0.807843 0.921569 1
0.529412 0.807843 0.921569 1
0.529412 0.807843 0.921569 1
0.529412 0.807843 0.921569 1
0.529412 0.807843 0.921569 1
0.529412 0.807843 0.921569 1
0.529412 0.807843 0.921569 1
0.529412 0.807843 0.921569 1
0.529412 0.807843 0.921569 1
0.529412 0.807843 0.921569 1
0.529412 0.807843 0.921569 1
0.529412 0.807843 0.921569 1
0.529412 0.807843 0.921569 1
0.529412 0.807843 0.921569 1
0.529412 0.807843 0.921569 1
0.529412 0.807843 0.921569 1
0.529412 0.807843 0.921569 1
0.529412 0.807843 0.921569 1
0.529412 0.807843 0.921569 1
0.529412 0.807843 0.921569 1
0.529412 0.807843 0.921569 1
0.529412 0.807843 0.921569 1
0.529412 0.807843 0.921569 1
0.529412 0.807843 0.921569 1
0.529412 0.807843 0.921569 1
0.529412 0.807843 0.921569 1
0.529412 0.807843 0.921569 1
0.529412 0.807843 0.921569 1
0.529412 0.807843 0.921569 1
0.529412 0.807843 0.921569 1
0.529412 0.807843 0.921569 1
0.529412 0.807843 0.921569 1
0.529412 0.807843 0.921569 1
0.529412 0.807843 0.921569 1
0.529412 0.807843 0.921569 1
0.529412 0.807843 0.921569 1
0.529412 0.807843 0.921569 1
0.529412 0.807843 0.921569 1
0.529412 0.807843 0.921569 1
0.529412 0.807843 0.921569 1
0.529412 0.807843 0.921569 1
0.529412 0.807843 0.921569 1
0.529412 0.807843 0.921569 1
0.529412 0.807843 0.921569 1
0.529412 0.807843 0.921569 1
0.529412 0.807843 0.921569 1
0.529412 0.807843 0.921569 1
0.529412 0.807843 0.921569 1
0.529412 0.807843 0.921569 1
0.529412 0.807843 0.921569 1
0.529412 0.807843 0.921569 1
0.529412 0.807843 0.921569 1
0.529412 0.807843 0.921569 1
0.529412 0.807843 0.921569 1
0.529412 0.807843 0.921569 1
0.529412 0.807843 0.921569 1
0.529412 0.807843 0.921569 1
0.529412 0.807843 0.921569 1
0.529412 0.807843 0.921569 1
0.529412 0.807843 0.921569 1
0.529412 0.807843 0.921569 1
0.529412 0.807843 0.921569 1
0.529412 0.807843 0.921569 1
0.529412 0.807843 0.921569 1
0.529412 0.807843 0.921569 1
0.529412 0.807843 0.921569 1
0.529412 0.807843 0.921569 1
0.529412 0.807843 0.921569 1
0.529412 0.807843 0.921569 1
0.529412 0.807843 0.921569 1
0.529412 0.807843 0.921569 1
0.529412 0.807843 0.921569 1
0.529412 0.807843 0.921569 1
0.529412 0.807843 0.921569 1
0.529412 0.807843 0.921569 1
0.529412 0.807843 0.921569 1
0.529412 0.807843 0.921569 1
0.529412 0.807843 0.921569 1
0.529412 0.807843 0.921569 1
0.529412 0.807843 0.921569 1
0.529412 0.807843 0.921569 1
0.529412 0.807843 0.921569 1
0.529412 0.807843 0.921569 1
0.529412 0.807843 0.921569 1
0.529412 0.807843 0.921569 1
0.529412 0.807843 0.921569 1
0.529412 0.807843 0.921569 1
0.529412 0.807843 0.921569 1
0.529412 0.807843 0.921569 1
0.529412 0.807843 0.921569 1
0.529412 0.807843 0.921569 1
0.529412 0.807843 0.921569 1
0.529412 0.807843 0.921569 1
0.529412 0.807843 0.921569 1
0.529412 0.807843 0.921569 1
0.529412 0.807843 0.921569 1
0.529412 0.807843 0.921569 1
0.529412 0.807843 0.921569 1
0.529412 0.807843 0.921569 1
0.529412 0.807843 0.921569 1
0.529412 0.807843 0.921569 1
0.529412 0.807843 0.921569 1
0.529412 0.807843 0.921569 1
0.529412 0.807843 0.921569 1
0.529412 0.807843 0.921569 1
0.529412 0.807843 0.921569 1
0.529412 0.807843 0.921569 1
0.529412 0.807843 0.921569 1
0.529412 0.807843 0.921569 1
0.529412 0.807843 0.921569 1
0.529412 0.807843 0.921569 1
0.529412 0.807843 0.921569 1
0.529412 0.807843 0.921569 1
0.529412 0.807843 0.921569 1
0.529412 0.807843 0.921569 1
0.529412 0.807843 0.921569 1
0.529412 0.807843 0.921569 1
0.529412 0.807843 0.921569 1
0.529412 0.807843 0.921569 1
0.529412 0.807843 0.921569 1
0.529412 0.807843 0.921569 1
0.529412 0.807843 0.921569 1
0.529412 0.807843 0.921569 1
0.529412 0.807843 0.921569 1