# vtk DataFile Version 3.0
Gocad TSurf to VTK
ASCII
DATASET POLYDATA
POINTS 107 float
21608475.000 4565685.000 -416.250
21609075.000 4566525.000 -142.500
21608800.000 4566460.000 -180.000
21609150.000 4566647.500 -103.750
21608000.000 4565340.000 -545.000
21608950.000 4566030.000 -287.500
21609350.000 4566590.000 -105.000
21609425.000 4566375.000 -158.750
21609625.000 4566655.000 -67.500
21609500.000 4566835.000 -27.500
21609900.000 4566720.000 -30.000
21609850.000 4567022.500 48.750
21610625.000 4567392.500 128.750
21610200.000 4567500.000 202.500
21610200.000 4568080.000 357.500
21610370.164 4568165.082 391.533
21610200.000 4568217.965 394.370
21610122.758 4568243.293 395.369
21610285.125 4568193.090 393.373
21610296.250 4568189.840 393.243
21610110.156 4568247.426 395.532
21610070.914 4568257.219 395.934
21609250.000 4567540.000 147.500
21608200.000 4566362.500 -285.000
21609778.398 4568324.777 398.744
21609710.742 4568349.309 401.911
21609581.430 4568451.465 410.750
21609275.000 4568327.500 342.500
21609451.367 4568554.566 419.659
21608000.000 4566610.000 -253.750
21607875.000 4566450.000 -310.000
21608425.000 4567742.500 77.500
21609025.000 4568512.500 340.000
21608000.000 4567170.000 -121.250
21607625.000 4566690.000 -290.000
21608800.000 4568480.000 295.000
21607900.000 4567665.000 -72.500
21609250.000 4568545.000 385.000
21609430.438 4568571.063 421.088
21609431.820 4568577.324 421.364
21609430.438 4568571.063 421.088
21607525.000 4567185.000 -241.250
21608300.000 4568530.000 132.500
21607850.000 4568297.500 -36.250
21608675.000 4568647.500 266.250
21608425.000 4568982.500 208.750
21608050.000 4568555.000 51.250
21608300.000 4569150.000 180.000
21607675.000 4568860.000 -22.500
21607525.000 4568657.500 -93.750
21607900.000 4569510.000 125.000
21608175.000 4569372.500 173.750
21607425.000 4569420.000 -7.500
21607700.000 4569685.000 97.500
21607375.000 4569352.500 -31.250
21607450.000 4569005.000 -62.500
21607300.000 4569700.000 0.000
21607500.000 4569860.000 70.000
21607800.000 4570040.000 155.000
21607925.000 4569817.500 161.250
21607850.000 4569817.500 161.250
21608000.000 4569595.000 167.500
21607700.000 4570040.000 155.000
21608050.000 4569595.000 167.500
21608150.000 4569372.500 173.750
21607600.000 4568310.000 -125.000
21607700.000 4568095.000 -107.500
21607575.000 4567935.000 -163.750
21607550.000 4567560.000 -202.500
21607500.000 4566810.000 -280.000
21607550.000 4566560.000 -332.500
21607750.000 4566570.000 -300.000
21607600.000 4566310.000 -385.000
21607650.000 4566060.000 -437.500
21607700.000 4565810.000 -490.000
21608000.000 4565587.500 -488.750
21607775.000 4565692.500 -503.750
21607850.000 4565575.000 -517.500
21607925.000 4565457.500 -531.250
21610489.750 4568125.027 388.767
21610633.570 4568069.836 385.219
21610778.023 4568028.477 382.099
21610863.570 4568040.984 381.420
21611037.523 4568112.496 381.493
21611150.000 4568090.000 350.000
21611050.000 4567575.000 132.500
21611038.070 4568107.910 381.341
21611163.094 4568139.766 380.777
21611243.070 4568159.285 380.388
21611400.000 4568100.000 315.000
21611650.000 4568080.000 262.500
21611376.594 4568190.676 379.702
21611440.328 4568208.895 381.548
21611472.258 4568217.750 382.477
21611622.063 4568262.238 386.780
21611724.336 4568285.656 385.150
21611726.117 4568286.043 385.122
21611900.000 4568060.000 210.000
21611900.000 4567940.000 140.000
21611771.109 4568297.980 384.364
21612000.000 4568350.000 375.000
21611769.477 4568295.992 384.430
21612000.000 4568340.000 375.000
21611475.000 4567757.500 136.250
21611400.000 4567635.000 97.500
21610900.000 4567330.000 55.000
21610400.000 4567025.000 12.500

POLYGONS 145 580
3 7 10 8
3 62 58 60
3 15 14 13
3 48 47 50
3 59 50 63
3 81 80 13
3 28 39 37
3 5 1 0
3 29 30 23
3 73 74 23
3 9 11 13
3 72 71 70
3 53 57 52
3 3 6 9
3 42 43 36
3 86 83 84
3 32 37 35
3 54 55 48
3 97 96 90
3 99 96 97
3 81 13 12
3 87 86 84
3 65 43 46
3 61 59 63
3 17 20 2
3 25 26 22
3 32 35 31
3 71 34 70
3 103 85 104
3 85 105 104
3 79 15 13
3 7 6 5
3 83 12 84
3 43 42 46
3 44 45 42
3 75 77 78
3 47 64 51
3 65 67 66
3 1 3 2
3 8 10 11
3 31 35 33
3 27 29 23
3 33 34 29
3 20 21 2
3 74 76 75
3 31 33 29
3 33 69 34
3 67 68 36
3 12 106 105
3 99 97 100
3 52 54 48
3 93 92 90
3 30 71 72
3 22 27 23
3 6 8 9
3 76 77 75
3 32 31 27
3 9 14 3
3 19 18 14
3 34 69 70
3 52 56 54
3 36 41 33
3 41 36 68
3 50 53 52
3 73 30 72
3 41 69 33
3 53 50 59
3 14 16 3
3 45 44 47
3 57 56 52
3 83 82 12
3 47 48 46
3 39 38 37
3 61 63 64
3 35 36 33
3 65 66 43
3 66 67 36
3 49 65 46
3 92 91 89
3 84 103 90
3 9 8 11
3 49 48 55
3 88 87 84
3 84 12 85
3 98 103 104
3 48 49 46
3 30 73 23
3 7 8 6
3 26 28 27
3 91 88 89
3 13 11 12
3 29 27 31
3 21 24 22
3 22 26 27
3 75 78 4
3 0 1 2
3 60 59 61
3 18 16 14
3 52 48 50
3 38 35 37
3 85 103 84
3 16 17 3
3 47 51 50
3 82 81 12
3 38 40 35
3 89 88 84
3 95 94 90
3 27 28 37
3 2 4 0
3 14 9 13
3 75 4 2
3 98 97 90
3 74 75 23
3 11 10 12
3 22 23 2
3 32 27 37
3 58 53 59
3 17 2 3
3 92 89 90
3 60 58 59
3 96 95 90
3 99 100 101
3 58 57 53
3 35 42 36
3 42 35 44
3 1 6 3
3 100 102 101
3 15 19 14
3 103 98 90
3 45 46 42
3 24 25 22
3 85 12 105
3 29 71 30
3 51 63 50
3 80 79 13
3 64 63 51
3 21 22 2
3 34 71 29
3 90 89 84
3 94 93 90
3 47 46 45
3 43 66 36
3 75 2 23
3 10 106 12
3 5 6 1

POINT_DATA 107
COLOR_SCALARS GocadColor 4
0.0980392 0.0980392 0.439216 1
0.0980392 0.0980392 0.439216 1
0.0980392 0.0980392 0.439216 1
0.0980392 0.0980392 0.439216 1
0.0980392 0.0980392 0.439216 1
0.0980392 0.0980392 0.439216 1
0.0980392 0.0980392 0.439216 1
0.0980392 0.0980392 0.439216 1
0.0980392 0.0980392 0.439216 1
0.0980392 0.0980392 0.439216 1
0.0980392 0.0980392 0.439216 1
0.0980392 0.0980392 0.439216 1
0.0980392 0.0980392 0.439216 1
0.0980392 0.0980392 0.439216 1
0.0980392 0.0980392 0.439216 1
0.0980392 0.0980392 0.439216 1
0.0980392 0.0980392 0.439216 1
0.0980392 0.0980392 0.439216 1
0.0980392 0.0980392 0.439216 1
0.0980392 0.0980392 0.439216 1
0.0980392 0.0980392 0.439216 1
0.0980392 0.0980392 0.439216 1
0.0980392 0.0980392 0.439216 1
0.0980392 0.0980392 0.439216 1
0.0980392 0.0980392 0.439216 1
0.0980392 0.0980392 0.439216 1
0.0980392 0.0980392 0.439216 1
0.0980392 0.0980392 0.439216 1
0.0980392 0.0980392 0.439216 1
0.0980392 0.0980392 0.439216 1
0.0980392 0.0980392 0.439216 1
0.0980392 0.0980392 0.439216 1
0.0980392 0.0980392 0.439216 1
0.0980392 0.0980392 0.439216 1
0.0980392 0.0980392 0.439216 1
0.0980392 0.0980392 0.439216 1
0.0980392 0.0980392 0.439216 1
0.0980392 0.0980392 0.439216 1
0.0980392 0.0980392 0.439216 1
0.0980392 0.0980392 0.439216 1
0.0980392 0.0980392 0.439216 1
0.0980392 0.0980392 0.439216 1
0.0980392 0.0980392 0.439216 1
0.0980392 0.0980392 0.439216 1
0.0980392 0.0980392 0.439216 1
0.0980392 0.0980392 0.439216 1
0.0980392 0.0980392 0.439216 1
0.0980392 0.0980392 0.439216 1
0.0980392 0.0980392 0.439216 1
0.0980392 0.0980392 0.439216 1
0.0980392 0.0980392 0.439216 1
0.0980392 0.0980392 0.439216 1
0.0980392 0.0980392 0.439216 1
0.0980392 0.0980392 0.439216 1
0.0980392 0.0980392 0.439216 1
0.0980392 0.0980392 0.439216 1
0.0980392 0.0980392 0.439216 1
0.0980392 0.0980392 0.439216 1
0.0980392 0.0980392 0.439216 1
0.0980392 0.0980392 0.439216 1
0.0980392 0.0980392 0.439216 1
0.0980392 0.0980392 0.439216 1
0.0980392 0.0980392 0.439216 1
0.0980392 0.0980392 0.439216 1
0.0980392 0.0980392 0.439216 1
0.0980392 0.0980392 0.439216 1
0.0980392 0.0980392 0.439216 1
0.0980392 0.0980392 0.439216 1
0.0980392 0.0980392 0.439216 1
0.0980392 0.0980392 0.439216 1
0.0980392 0.0980392 0.439216 1
0.0980392 0.0980392 0.439216 1
0.0980392 0.0980392 0.439216 1
0.0980392 0.0980392 0.439216 1
0.0980392 0.0980392 0.439216 1
0.0980392 0.0980392 0.439216 1
0.0980392 0.0980392 0.439216 1
0.0980392 0.0980392 0.439216 1
0.0980392 0.0980392 0.439216 1
0.0980392 0.0980392 0.439216 1
0.0980392 0.0980392 0.439216 1
0.0980392 0.0980392 0.439216 1
0.0980392 0.0980392 0.439216 1
0.0980392 0.0980392 0.439216 1
0.0980392 0.0980392 0.439216 1
0.0980392 0.0980392 0.439216 1
0.0980392 0.0980392 0.439216 1
0.0980392 0.0980392 0.439216 1
0.0980392 0.0980392 0.439216 1
0.0980392 0.0980392 0.439216 1
0.0980392 0.0980392 0.439216 1
0.0980392 0.0980392 0.439216 1
0.0980392 0.0980392 0.439216 1
0.0980392 0.0980392 0.439216 1
0.0980392 0.0980392 0.439216 1
0.0980392 0.0980392 0.439216 1
0.0980392 0.0980392 0.439216 1
0.0980392 0.0980392 0.439216 1
0.0980392 0.0980392 0.439216 1
0.0980392 0.0980392 0.439216 1
0.0980392 0.0980392 0.439216 1
0.0980392 0.0980392 0.439216 1
0.0980392 0.0980392 0.439216 1
0.0980392 0.0980392 0.439216 1
0.0980392 0.0980392 0.439216 1
0.0980392 0.0980392 0.439216 1
0.0980392 0.0980392 0.439216 1

