# vtk DataFile Version 3.0
Gocad TSurf to VTK
ASCII
DATASET POLYDATA
POINTS 90 float
21611400.000 4568010.000 -2307.500
21610900.000 4567300.000 -2537.500
21610625.000 4568055.000 -2087.500
21610400.000 4567005.000 -2516.250
21611725.000 4568377.500 -2162.500
21611400.000 4567595.000 -2558.750
21611650.000 4567950.000 -2443.750
21611900.000 4567890.000 -2580.000
21612000.000 4568460.000 -2205.000
21612200.000 4569540.000 -1495.000
21612175.000 4569580.000 -1487.500
21612125.000 4569660.000 -1472.500
21612175.000 4569580.000 -1487.500
21612150.000 4569620.000 -1480.000
21612100.000 4569700.000 -1465.000
21611150.000 4568740.000 -1836.250
21612050.000 4569917.500 -1408.750
21610075.000 4567905.000 -2192.500
21611650.000 4569960.000 -1438.750
21612000.000 4570135.000 -1352.500
21609800.000 4567830.000 -2245.000
21611900.000 4570570.000 -1240.000
21609850.000 4567270.000 -2377.500
21608900.000 4565990.000 -2817.500
21609400.000 4566350.000 -2656.250
21608400.000 4565630.000 -2978.750
21607900.000 4565270.000 -3140.000
21608500.000 4566510.000 -2867.500
21607825.000 4565395.000 -3178.750
21609275.000 4567770.000 -2507.500
21608800.000 4567130.000 -2731.250
21610250.000 4568672.500 -1993.750
21610700.000 4569515.000 -1742.500
21611825.000 4570727.500 -1240.000
21611825.000 4570725.000 -1240.000
21611750.000 4570880.000 -1240.000
21611675.000 4571035.000 -1240.000
21611600.000 4571190.000 -1240.000
21609100.000 4567750.000 -2595.000
21610925.000 4570552.500 -1421.250
21609000.000 4568180.000 -2280.000
21608800.000 4567632.500 -2587.500
21610250.000 4569905.000 -1602.500
21609575.000 4569257.500 -1783.750
21608900.000 4568610.000 -1965.000
21609575.000 4569255.000 -1783.750
21607825.000 4567537.500 -2530.000
21608625.000 4568585.000 -2063.750
21607850.000 4567895.000 -2462.500
21608775.000 4568765.000 -2000.000
21608650.000 4568920.000 -2035.000
21608775.000 4568765.000 -2000.000
21608075.000 4568535.000 -2261.250
21608525.000 4569075.000 -2070.000
21607825.000 4568202.500 -2411.250
21607675.000 4568812.500 -2348.750
21607675.000 4568052.500 -2460.000
21607600.000 4568310.000 -2425.000
21607575.000 4567927.500 -2508.750
21607550.000 4567545.000 -2592.500
21607525.000 4567162.500 -2676.250
21607825.000 4566902.500 -2747.500
21607500.000 4566780.000 -2760.000
21607525.000 4566527.500 -2893.750
21607550.000 4566275.000 -3027.500
21607675.000 4566147.500 -3112.500
21607575.000 4566022.500 -3161.250
21607600.000 4565770.000 -3295.000
21607675.000 4565645.000 -3256.250
21607750.000 4565520.000 -3217.500
21607525.000 4568662.500 -2397.500
21607450.000 4569015.000 -2370.000
21607550.000 4569115.000 -2337.500
21608125.000 4569352.500 -2157.500
21607375.000 4569367.500 -2342.500
21607425.000 4569417.500 -2326.250
21607850.000 4569475.000 -2210.000
21607300.000 4569720.000 -2315.000
21607575.000 4569597.500 -2262.500
21607700.000 4569970.000 -2220.000
21607875.000 4569785.000 -2191.250
21608050.000 4569600.000 -2162.500
21608025.000 4569920.000 -2138.750
21608150.000 4569690.000 -2127.500
21607900.000 4570150.000 -2150.000
21608275.000 4569460.000 -2116.250
21608400.000 4569230.000 -2105.000
21609900.000 4566710.000 -2495.000
21611950.000 4570352.500 -1296.250
21612050.000 4569917.500 -1408.750

POLYGONS 126 504
3 3 17 2
3 4 2 15
3 29 38 32
3 19 16 15
3 36 35 32
3 51 44 49
3 82 83 80
3 39 38 40
3 23 20 22
3 5 1 0
3 65 38 67
3 16 14 15
3 17 20 18
3 61 63 62
3 38 37 32
3 25 20 23
3 13 10 11
3 12 10 13
3 81 85 73
3 43 42 40
3 47 44 46
3 86 52 55
3 59 46 60
3 32 31 29
3 74 75 72
3 79 82 80
3 54 56 57
3 6 7 5
3 44 43 40
3 10 9 4
3 67 30 68
3 42 39 40
3 47 52 50
3 21 20 31
3 15 2 17
3 18 88 19
3 72 76 73
3 20 27 29
3 20 21 18
3 38 39 37
3 65 66 64
3 71 72 55
3 47 48 52
3 68 27 69
3 40 41 46
3 86 53 52
3 20 25 26
3 45 43 44
3 20 26 27
3 65 64 61
3 8 7 6
3 18 19 15
3 61 62 60
3 78 80 76
3 50 51 49
3 87 24 22
3 80 81 76
3 14 11 4
3 68 30 27
3 41 65 61
3 75 77 78
3 65 67 66
3 48 47 46
3 24 23 22
3 81 73 76
3 72 73 55
3 3 87 22
3 0 6 5
3 9 10 12
3 52 53 50
3 35 34 33
3 55 73 86
3 20 17 22
3 89 14 16
3 41 38 65
3 85 86 73
3 57 70 55
3 67 38 30
3 8 6 4
3 55 70 71
3 38 29 30
3 1 3 2
3 4 6 0
3 37 36 32
3 82 79 84
3 18 21 88
3 52 54 55
3 76 75 78
3 46 59 48
3 41 61 46
3 48 54 52
3 61 60 46
3 78 79 80
3 49 47 50
3 4 0 2
3 75 76 72
3 38 41 40
3 43 45 42
3 59 58 48
3 74 77 75
3 28 69 27
3 33 21 31
3 3 22 17
3 74 72 71
3 4 15 14
3 17 18 15
3 64 63 61
3 44 40 46
3 48 56 54
3 31 20 29
3 34 21 33
3 35 33 32
3 26 28 27
3 27 30 29
3 81 80 83
3 58 56 48
3 44 47 49
3 19 89 16
3 54 57 55
3 78 77 79
3 56 58 57
3 9 8 4
3 33 31 32
3 0 1 2
3 81 83 85
3 11 10 4

POINT_DATA 90
COLOR_SCALARS GocadColor 4
0.0930037 0.0930037 0.439216 1
0.0930037 0.0930037 0.439216 1
0.0930037 0.0930037 0.439216 1
0.0930037 0.0930037 0.439216 1
0.0930037 0.0930037 0.439216 1
0.0930037 0.0930037 0.439216 1
0.0930037 0.0930037 0.439216 1
0.0930037 0.0930037 0.439216 1
0.0930037 0.0930037 0.439216 1
0.0930037 0.0930037 0.439216 1
0.0930037 0.0930037 0.439216 1
0.0930037 0.0930037 0.439216 1
0.0930037 0.0930037 0.439216 1
0.0930037 0.0930037 0.439216 1
0.0930037 0.0930037 0.439216 1
0.0930037 0.0930037 0.439216 1
0.0930037 0.0930037 0.439216 1
0.0930037 0.0930037 0.439216 1
0.0930037 0.0930037 0.439216 1
0.0930037 0.0930037 0.439216 1
0.0930037 0.0930037 0.439216 1
0.0930037 0.0930037 0.439216 1
0.0930037 0.0930037 0.439216 1
0.0930037 0.0930037 0.439216 1
0.0930037 0.0930037 0.439216 1
0.0930037 0.0930037 0.439216 1
0.0930037 0.0930037 0.439216 1
0.0930037 0.0930037 0.439216 1
0.0930037 0.0930037 0.439216 1
0.0930037 0.0930037 0.439216 1
0.0930037 0.0930037 0.439216 1
0.0930037 0.0930037 0.439216 1
0.0930037 0.0930037 0.439216 1
0.0930037 0.0930037 0.439216 1
0.0930037 0.0930037 0.439216 1
0.0930037 0.0930037 0.439216 1
0.0930037 0.0930037 0.439216 1
0.0930037 0.0930037 0.439216 1
0.0930037 0.0930037 0.439216 1
0.0930037 0.0930037 0.439216 1
0.0930037 0.0930037 0.439216 1
0.0930037 0.0930037 0.439216 1
0.0930037 0.0930037 0.439216 1
0.0930037 0.0930037 0.439216 1
0.0930037 0.0930037 0.439216 1
0.0930037 0.0930037 0.439216 1
0.0930037 0.0930037 0.439216 1
0.0930037 0.0930037 0.439216 1
0.0930037 0.0930037 0.439216 1
0.0930037 0.0930037 0.439216 1
0.0930037 0.0930037 0.439216 1
0.0930037 0.0930037 0.439216 1
0.0930037 0.0930037 0.439216 1
0.0930037 0.0930037 0.439216 1
0.0930037 0.0930037 0.439216 1
0.0930037 0.0930037 0.439216 1
0.0930037 0.0930037 0.439216 1
0.0930037 0.0930037 0.439216 1
0.0930037 0.0930037 0.439216 1
0.0930037 0.0930037 0.439216 1
0.0930037 0.0930037 0.439216 1
0.0930037 0.0930037 0.439216 1
0.0930037 0.0930037 0.439216 1
0.0930037 0.0930037 0.439216 1
0.0930037 0.0930037 0.439216 1
0.0930037 0.0930037 0.439216 1
0.0930037 0.0930037 0.439216 1
0.0930037 0.0930037 0.439216 1
0.0930037 0.0930037 0.439216 1
0.0930037 0.0930037 0.439216 1
0.0930037 0.0930037 0.439216 1
0.0930037 0.0930037 0.439216 1
0.0930037 0.0930037 0.439216 1
0.0930037 0.0930037 0.439216 1
0.0930037 0.0930037 0.439216 1
0.0930037 0.0930037 0.439216 1
0.0930037 0.0930037 0.439216 1
0.0930037 0.0930037 0.439216 1
0.0930037 0.0930037 0.439216 1
0.0930037 0.0930037 0.439216 1
0.0930037 0.0930037 0.439216 1
0.0930037 0.0930037 0.439216 1
0.0930037 0.0930037 0.439216 1
0.0930037 0.0930037 0.439216 1
0.0930037 0.0930037 0.439216 1
0.0930037 0.0930037 0.439216 1
0.0930037 0.0930037 0.439216 1
0.0930037 0.0930037 0.439216 1
0.0930037 0.0930037 0.439216 1
0.0930037 0.0930037 0.439216 1

