# vtk DataFile Version 3.0
Gocad TSurf to VTK
ASCII
DATASET POLYDATA
POINTS 104 float
21607800.000 4587330.000 250.000
21607675.000 4586990.000 62.500
21607650.000 4587312.500 250.000
21607500.000 4587295.000 250.000
21607800.000 4585940.000 -515.000
21607675.000 4585947.500 -511.250
21607900.000 4587092.500 90.000
21607900.000 4587360.000 243.750
21607900.000 4586050.000 -483.750
21608000.000 4586855.000 -70.000
21607875.000 4585997.500 -505.000
21607950.000 4585965.000 -537.500
21607875.000 4585862.500 -568.750
21607800.000 4585760.000 -600.000
21607675.000 4585812.500 -575.000
21607675.000 4585527.500 -728.750
21607550.000 4585955.000 -507.500
21607425.000 4585917.500 -525.000
21607425.000 4586310.000 -312.500
21607300.000 4585970.000 -500.000
21607350.000 4587277.500 250.000
21607200.000 4587260.000 250.000
21606950.000 4586580.000 -132.500
21607200.000 4585785.000 -612.500
21607050.000 4587242.500 246.250
21606900.000 4587225.000 242.500
21606750.000 4587207.500 238.750
21606600.000 4587190.000 235.000
21606900.000 4585230.000 -950.000
21606650.000 4585727.500 -646.250
21606525.000 4584967.500 -991.250
21606425.000 4587197.500 242.500
21606400.000 4586225.000 -342.500
21606250.000 4587205.000 250.000
21606075.000 4587212.500 257.500
21605900.000 4587220.000 265.000
21606400.000 4584880.000 -1005.000
21605900.000 4586567.500 -66.250
21606150.000 4584745.000 -1032.500
21605725.000 4587222.500 282.500
21605725.000 4587222.500 282.500
21605375.000 4587227.500 317.500
21606025.000 4584677.500 -1046.250
21605550.000 4587225.000 300.000
21605200.000 4587230.000 335.000
21605200.000 4586747.500 105.000
21605550.000 4584955.000 -822.500
21605187.281 4587230.000 335.636
21605055.414 4587212.578 333.926
21605187.281 4587230.000 335.636
21604797.969 4587178.570 330.586
21604682.859 4587163.367 329.093
21604629.266 4587159.922 328.423
21605200.000 4585300.000 -585.000
21604623.164 4587155.477 328.319
21605900.000 4583462.500 -1521.250
21605900.000 4583845.000 -1367.500
21605900.000 4583080.000 -1675.000
21605975.000 4583162.500 -1671.250
21605850.000 4583000.000 -1723.750
21605575.000 4583395.000 -1548.750
21604900.000 4585550.000 -480.000
21605800.000 4582920.000 -1772.500
21605750.000 4582840.000 -1821.250
21605700.000 4582760.000 -1870.000
21604600.000 4585800.000 -375.000
21604600.000 4586157.500 -190.000
21604600.000 4586872.500 180.000
21604109.078 4587154.938 322.106
21604112.242 4587154.961 322.144
21604238.258 4587155.906 323.673
21604267.625 4587156.125 324.029
21604386.078 4587157.016 325.466
21604496.617 4587157.844 326.806
21604600.000 4587158.617 328.060
21606050.000 4583245.000 -1667.500
21606125.000 4583327.500 -1663.750
21606200.000 4583410.000 -1660.000
21606250.000 4584205.000 -1310.000
21606300.000 4583507.500 -1635.000
21606400.000 4583605.000 -1610.000
21606425.000 4584002.500 -1435.000
21606500.000 4583702.500 -1585.000
21606600.000 4583800.000 -1560.000
21606750.000 4584590.000 -1220.000
21606725.000 4583925.000 -1528.750
21606850.000 4584050.000 -1497.500
21606975.000 4584175.000 -1466.250
21607100.000 4584300.000 -1435.000
21607150.000 4584432.500 -1355.000
21607000.000 4585130.000 -991.250
21607200.000 4584565.000 -1275.000
21607250.000 4584697.500 -1195.000
21607300.000 4584830.000 -1115.000
21607425.000 4585062.500 -986.250
21607550.000 4585295.000 -857.500
21608025.000 4586067.500 -506.250
21608025.000 4586112.500 -485.000
21608000.000 4586160.000 -452.500
21608100.000 4586170.000 -475.000
21608200.000 4586380.000 -390.000
21608200.000 4587450.000 225.000
21608100.000 4587420.000 231.250
21608000.000 4587390.000 237.500

POLYGONS 140 560
3 37 38 42
3 1 3 2
3 8 6 9
3 103 9 6
3 66 65 68
3 24 21 22
3 102 101 9
3 85 83 84
3 0 4 1
3 36 30 84
3 35 34 32
3 49 44 47
3 89 28 90
3 79 77 78
3 47 45 48
3 45 46 51
3 91 89 90
3 4 14 5
3 82 81 83
3 101 100 9
3 81 78 38
3 103 6 7
3 43 39 41
3 78 56 42
3 81 36 83
3 17 16 14
3 15 95 14
3 86 85 84
3 19 21 18
3 100 99 98
3 26 25 22
3 16 5 14
3 4 13 14
3 89 88 28
3 28 27 22
3 45 42 46
3 4 0 6
3 81 80 78
3 3 1 18
3 59 60 53
3 90 28 23
3 65 66 61
3 12 10 11
3 102 9 103
3 50 45 51
3 97 96 8
3 98 8 9
3 74 67 73
3 76 75 56
3 77 76 56
3 28 84 30
3 42 38 78
3 61 66 67
3 16 17 19
3 100 98 9
3 60 64 65
3 18 21 20
3 99 96 97
3 45 44 42
3 6 0 7
3 55 53 46
3 22 25 24
3 0 1 2
3 69 66 68
3 32 29 30
3 13 4 12
3 18 16 19
3 44 45 47
3 11 10 8
3 32 31 29
3 46 53 52
3 5 16 18
3 39 43 40
3 28 88 84
3 92 91 90
3 63 64 60
3 52 53 54
3 75 58 55
3 29 28 30
3 51 46 52
3 58 57 55
3 1 5 18
3 95 17 14
3 93 19 94
3 20 3 18
3 88 87 84
3 63 60 62
3 12 4 10
3 96 11 8
3 60 61 53
3 29 31 27
3 98 97 8
3 44 41 42
3 87 86 84
3 37 35 36
3 94 19 17
3 23 19 93
3 73 67 72
3 13 15 14
3 67 66 71
3 57 53 55
3 41 37 42
3 60 65 61
3 94 17 95
3 39 37 41
3 21 19 22
3 4 5 1
3 80 79 78
3 32 33 31
3 36 35 32
3 66 69 70
3 67 53 61
3 27 26 22
3 37 36 38
3 99 97 98
3 45 50 48
3 46 42 56
3 83 36 84
3 8 4 6
3 36 81 38
3 82 80 81
3 23 93 90
3 56 55 46
3 30 36 32
3 57 59 53
3 72 67 71
3 19 23 22
3 78 77 56
3 10 4 8
3 29 27 28
3 34 33 32
3 93 92 90
3 56 75 55
3 59 62 60
3 53 67 74
3 71 66 70
3 28 22 23
3 39 40 35
3 37 39 35
3 54 53 74

POINT_DATA 104
COLOR_SCALARS GocadColor 4
1 0.498039 0.313726 1
1 0.498039 0.313726 1
1 0.498039 0.313726 1
1 0.498039 0.313726 1
1 0.498039 0.313726 1
1 0.498039 0.313726 1
1 0.498039 0.313726 1
1 0.498039 0.313726 1
1 0.498039 0.313726 1
1 0.498039 0.313726 1
1 0.498039 0.313726 1
1 0.498039 0.313726 1
1 0.498039 0.313726 1
1 0.498039 0.313726 1
1 0.498039 0.313726 1
1 0.498039 0.313726 1
1 0.498039 0.313726 1
1 0.498039 0.313726 1
1 0.498039 0.313726 1
1 0.498039 0.313726 1
1 0.498039 0.313726 1
1 0.498039 0.313726 1
1 0.498039 0.313726 1
1 0.498039 0.313726 1
1 0.498039 0.313726 1
1 0.498039 0.313726 1
1 0.498039 0.313726 1
1 0.498039 0.313726 1
1 0.498039 0.313726 1
1 0.498039 0.313726 1
1 0.498039 0.313726 1
1 0.498039 0.313726 1
1 0.498039 0.313726 1
1 0.498039 0.313726 1
1 0.498039 0.313726 1
1 0.498039 0.313726 1
1 0.498039 0.313726 1
1 0.498039 0.313726 1
1 0.498039 0.313726 1
1 0.498039 0.313726 1
1 0.498039 0.313726 1
1 0.498039 0.313726 1
1 0.498039 0.313726 1
1 0.498039 0.313726 1
1 0.498039 0.313726 1
1 0.498039 0.313726 1
1 0.498039 0.313726 1
1 0.498039 0.313726 1
1 0.498039 0.313726 1
1 0.498039 0.313726 1
1 0.498039 0.313726 1
1 0.498039 0.313726 1
1 0.498039 0.313726 1
1 0.498039 0.313726 1
1 0.498039 0.313726 1
1 0.498039 0.313726 1
1 0.498039 0.313726 1
1 0.498039 0.313726 1
1 0.498039 0.313726 1
1 0.498039 0.313726 1
1 0.498039 0.313726 1
1 0.498039 0.313726 1
1 0.498039 0.313726 1
1 0.498039 0.313726 1
1 0.498039 0.313726 1
1 0.498039 0.313726 1
1 0.498039 0.313726 1
1 0.498039 0.313726 1
1 0.498039 0.313726 1
1 0.498039 0.313726 1
1 0.498039 0.313726 1
1 0.498039 0.313726 1
1 0.498039 0.313726 1
1 0.498039 0.313726 1
1 0.498039 0.313726 1
1 0.498039 0.313726 1
1 0.498039 0.313726 1
1 0.498039 0.313726 1
1 0.498039 0.313726 1
1 0.498039 0.313726 1
1 0.498039 0.313726 1
1 0.498039 0.313726 1
1 0.498039 0.313726 1
1 0.498039 0.313726 1
1 0.498039 0.313726 1
1 0.498039 0.313726 1
1 0.498039 0.313726 1
1 0.498039 0.313726 1
1 0.498039 0.313726 1
1 0.498039 0.313726 1
1 0.498039 0.313726 1
1 0.498039 0.313726 1
1 0.498039 0.313726 1
1 0.498039 0.313726 1
1 0.498039 0.313726 1
1 0.498039 0.313726 1
1 0.498039 0.313726 1
1 0.498039 0.313726 1
1 0.498039 0.313726 1
1 0.498039 0.313726 1
1 0.498039 0.313726 1
1 0.498039 0.313726 1
1 0.498039 0.313726 1
1 0.498039 0.313726 1

