# vtk DataFile Version 3.0
Gocad TSurf to VTK
ASCII
DATASET POLYDATA
POINTS 102 float
21526800.000 4563360.000 -85.000
21526800.000 4563602.500 -46.250
21526468.641 4563492.543 126.238
21526484.250 4563537.375 124.453
21526471.500 4563481.273 126.533
21526875.000 4563575.000 -85.000
21526900.000 4563562.500 -81.250
21526950.000 4563790.000 -85.000
21527000.000 4563765.000 -77.500
21526800.000 4563845.000 -7.500
21527025.000 4564005.000 -85.000
21526542.719 4563705.410 117.764
21526556.734 4563745.664 116.161
21526616.797 4563918.281 109.289
21526800.000 4564087.500 31.250
21526626.688 4563946.680 108.159
21527100.000 4564220.000 -85.000
21527200.000 4564170.000 -70.000
21526800.000 4564330.000 70.000
21526700.000 4564127.500 95.000
21526700.000 4564130.000 95.000
21526664.813 4564056.246 103.797
21526665.156 4564058.680 103.712
21526665.469 4564060.945 103.632
21526665.813 4564063.320 103.549
21526666.766 4564070.215 103.307
21526700.000 4564137.500 95.000
21526800.000 4564340.000 70.000
21527100.000 4563967.500 -73.750
21527300.000 4564100.000 40.000
21527175.000 4563915.000 8.750
21527050.000 4563730.000 -22.500
21527150.000 4563690.000 -62.500
21526925.000 4563545.000 -53.750
21527075.000 4563485.000 -113.750
21527000.000 4563280.000 -165.000
21526800.000 4563222.500 -53.750
21527150.000 4563447.500 -113.750
21527100.000 4563230.000 -165.000
21527200.000 4563665.000 -62.500
21527300.000 4563625.000 -15.000
21527250.000 4563882.500 -11.250
21527300.000 4563862.500 12.500
21527225.000 4563895.000 -11.250
21527300.000 4563862.500 12.500
21527375.000 4563837.500 55.000
21527300.000 4563625.000 -15.000
21527300.000 4563387.500 -42.500
21527450.000 4563575.000 70.000
21527300.000 4563387.500 -42.500
21527300.000 4563150.000 -70.000
21527200.000 4563057.500 -38.750
21527050.000 4563117.500 -110.000
21527225.000 4563047.500 -27.500
21527150.000 4562945.000 15.000
21527225.000 4563047.500 -27.500
21527150.000 4562945.000 15.000
21527225.000 4563047.500 -27.500
21527225.000 4563047.500 -25.000
21527150.000 4562945.000 15.000
21527450.000 4562972.500 102.500
21527300.000 4562895.000 105.000
21527600.000 4563050.000 100.000
21527525.000 4563312.500 85.000
21527150.000 4562945.000 20.000
21527150.000 4562817.500 107.500
21527075.000 4562842.500 65.000
21527075.000 4562842.500 57.500
21527000.000 4562740.000 110.000
21527000.000 4562740.000 100.000
21527075.000 4562842.500 57.500
21527075.000 4562842.500 57.500
21527000.000 4562872.500 23.750
21527100.000 4562965.000 -7.500
21526900.000 4562780.000 55.000
21526950.000 4562892.500 0.000
21527000.000 4563005.000 -55.000
21526925.000 4562905.000 0.000
21526800.000 4562810.000 40.000
21526850.000 4562927.500 -11.250
21526950.000 4563030.000 -55.000
21526800.000 4562947.500 8.750
21526900.000 4563045.000 -62.500
21526642.828 4562880.730 130.376
21526633.875 4562908.043 130.230
21526620.813 4562947.883 130.018
21526650.000 4563015.000 95.000
21526650.000 4563015.000 95.000
21526800.000 4563085.000 -22.500
21526700.000 4563130.000 35.000
21526700.000 4563130.000 35.000
21526750.000 4563245.000 -25.000
21526585.813 4563072.910 129.201
21526553.422 4563188.633 128.445
21526595.984 4563036.609 129.438
21526620.813 4562947.883 130.018
21526545.656 4563216.391 128.264
21526510.859 4563340.656 127.452
21526504.266 4563364.227 127.298
21526750.000 4563245.000 -25.000
21526950.000 4563162.500 -113.750
21526975.000 4563155.000 -110.000

POLYGONS 163 652
3 14 19 21
3 9 12 11
3 67 59 70
3 20 24 23
3 7 28 10
3 86 88 89
3 40 49 47
3 101 35 100
3 9 7 10
3 1 9 11
3 69 70 71
3 69 66 67
3 41 39 42
3 45 46 48
3 26 18 27
3 83 81 84
3 73 76 72
3 42 39 40
3 19 14 18
3 7 8 28
3 71 70 54
3 76 80 77
3 57 50 55
3 1 5 7
3 15 14 21
3 54 56 53
3 100 36 88
3 5 8 7
3 68 65 66
3 47 50 63
3 28 30 29
3 86 87 85
3 0 1 2
3 78 77 79
3 89 99 91
3 60 50 58
3 6 0 33
3 33 35 34
3 19 20 22
3 51 38 52
3 10 17 16
3 59 64 58
3 70 56 54
3 59 58 57
3 79 77 80
3 82 101 100
3 76 52 80
3 72 69 71
3 1 0 5
3 20 23 22
3 9 14 13
3 62 50 60
3 81 86 85
3 32 34 39
3 87 92 94
3 37 38 49
3 43 41 29
3 33 0 35
3 49 38 50
3 39 37 40
3 40 47 46
3 14 16 18
3 69 68 66
3 97 91 98
3 53 50 51
3 40 37 49
3 49 50 47
3 42 44 29
3 91 0 98
3 42 40 46
3 74 72 75
3 89 88 36
3 90 89 91
3 57 55 56
3 8 31 30
3 61 64 65
3 72 76 75
3 26 20 18
3 28 29 17
3 87 86 90
3 99 0 91
3 92 90 93
3 24 20 25
3 20 19 18
3 79 80 82
3 5 6 8
3 82 80 101
3 78 74 77
3 1 3 2
3 59 57 56
3 30 31 32
3 63 50 62
3 83 78 81
3 36 0 99
3 69 67 70
3 14 15 13
3 71 54 73
3 73 54 51
3 35 0 36
3 52 38 101
3 44 45 29
3 9 10 14
3 86 89 90
3 82 88 81
3 10 28 17
3 30 43 29
3 44 46 45
3 74 75 77
3 39 34 37
3 1 7 9
3 4 0 2
3 6 31 8
3 100 35 36
3 43 32 41
3 41 32 39
3 85 87 95
3 1 11 3
3 73 72 71
3 60 58 61
3 89 36 99
3 67 66 64
3 51 52 73
3 61 58 64
3 8 30 28
3 73 52 76
3 67 64 59
3 50 38 51
3 31 34 32
3 30 32 43
3 55 50 53
3 42 46 44
3 6 33 31
3 75 76 77
3 90 91 96
3 54 53 51
3 87 90 92
3 82 100 88
3 72 74 69
3 38 35 101
3 14 10 16
3 12 9 13
3 78 79 81
3 96 91 97
3 0 4 98
3 93 90 96
3 87 94 95
3 5 0 6
3 56 55 53
3 58 50 57
3 37 35 38
3 81 85 84
3 59 56 70
3 46 47 48
3 79 82 81
3 52 101 80
3 34 35 37
3 19 22 21
3 20 26 25
3 31 33 34
3 41 42 29
3 86 81 88
3 48 47 63
3 65 64 66

POINT_DATA 102
COLOR_SCALARS GocadColor 4
0 1 0.48333 1
0 1 0.48333 1
0 1 0.48333 1
0 1 0.48333 1
0 1 0.48333 1
0 1 0.48333 1
0 1 0.48333 1
0 1 0.48333 1
0 1 0.48333 1
0 1 0.48333 1
0 1 0.48333 1
0 1 0.48333 1
0 1 0.48333 1
0 1 0.48333 1
0 1 0.48333 1
0 1 0.48333 1
0 1 0.48333 1
0 1 0.48333 1
0 1 0.48333 1
0 1 0.48333 1
0 1 0.48333 1
0 1 0.48333 1
0 1 0.48333 1
0 1 0.48333 1
0 1 0.48333 1
0 1 0.48333 1
0 1 0.48333 1
0 1 0.48333 1
0 1 0.48333 1
0 1 0.48333 1
0 1 0.48333 1
0 1 0.48333 1
0 1 0.48333 1
0 1 0.48333 1
0 1 0.48333 1
0 1 0.48333 1
0 1 0.48333 1
0 1 0.48333 1
0 1 0.48333 1
0 1 0.48333 1
0 1 0.48333 1
0 1 0.48333 1
0 1 0.48333 1
0 1 0.48333 1
0 1 0.48333 1
0 1 0.48333 1
0 1 0.48333 1
0 1 0.48333 1
0 1 0.48333 1
0 1 0.48333 1
0 1 0.48333 1
0 1 0.48333 1
0 1 0.48333 1
0 1 0.48333 1
0 1 0.48333 1
0 1 0.48333 1
0 1 0.48333 1
0 1 0.48333 1
0 1 0.48333 1
0 1 0.48333 1
0 1 0.48333 1
0 1 0.48333 1
0 1 0.48333 1
0 1 0.48333 1
0 1 0.48333 1
0 1 0.48333 1
0 1 0.48333 1
0 1 0.48333 1
0 1 0.48333 1
0 1 0.48333 1
0 1 0.48333 1
0 1 0.48333 1
0 1 0.48333 1
0 1 0.48333 1
0 1 0.48333 1
0 1 0.48333 1
0 1 0.48333 1
0 1 0.48333 1
0 1 0.48333 1
0 1 0.48333 1
0 1 0.48333 1
0 1 0.48333 1
0 1 0.48333 1
0 1 0.48333 1
0 1 0.48333 1
0 1 0.48333 1
0 1 0.48333 1
0 1 0.48333 1
0 1 0.48333 1
0 1 0.48333 1
0 1 0.48333 1
0 1 0.48333 1
0 1 0.48333 1
0 1 0.48333 1
0 1 0.48333 1
0 1 0.48333 1
0 1 0.48333 1
0 1 0.48333 1
0 1 0.48333 1
0 1 0.48333 1
0 1 0.48333 1
0 1 0.48333 1

