# vtk DataFile Version 3.0
Gocad TSurf to VTK
ASCII
DATASET POLYDATA
POINTS 190 float
21544600.000 4559490.000 -980.000
21545000.000 4559340.000 -825.000
21544700.000 4559592.500 -955.000
21545000.000 4559480.000 -838.750
21544575.000 4559647.500 -972.500
21544100.000 4559252.500 -770.000
21543800.000 4559365.000 -886.250
21544100.000 4559252.500 -770.000
21543200.000 4559165.000 -715.000
21543200.000 4559165.000 -715.000
21542300.000 4559077.500 -660.000
21543000.000 4559240.000 -792.500
21542300.000 4559077.500 -660.000
21543275.000 4559552.500 -938.750
21542650.000 4559365.000 -827.500
21543900.000 4559740.000 -1050.000
21543200.000 4559980.000 -1060.000
21542750.000 4559732.500 -946.250
21543400.000 4560060.000 -1028.750
21543925.000 4559880.000 -1021.250
21543275.000 4560117.500 -1005.000
21543350.000 4560255.000 -950.000
21542750.000 4560320.000 -922.500
21543000.000 4560390.000 -895.000
21542500.000 4560250.000 -950.000
21542225.000 4559935.000 -863.750
21542300.000 4559485.000 -832.500
21542225.000 4559942.500 -867.500
21541950.000 4559635.000 -785.000
21542225.000 4559952.500 -867.500
21541950.000 4559655.000 -785.000
21541675.000 4559357.500 -702.500
21541675.000 4559327.500 -702.500
21541950.000 4559620.000 -777.500
21541400.000 4559060.000 -620.000
21541400.000 4559020.000 -620.000
21541675.000 4559305.000 -691.250
21541400.000 4558990.000 -605.000
21541850.000 4559237.500 -718.750
21542025.000 4559177.500 -716.250
21542200.000 4559115.000 -698.750
21543250.000 4560460.000 -867.500
21543425.000 4560392.500 -895.000
21543600.000 4560140.000 -997.500
21543500.000 4560530.000 -840.000
21543800.000 4560220.000 -966.250
21544000.000 4560300.000 -935.000
21543975.000 4560160.000 -963.750
21544225.000 4560900.000 -871.250
21544600.000 4560727.500 -942.500
21544500.000 4560120.000 -950.000
21544950.000 4561270.000 -902.500
21545200.000 4561155.000 -950.000
21544975.000 4560592.500 -953.750
21545675.000 4561640.000 -933.750
21545800.000 4561582.500 -957.500
21545450.000 4561065.000 -957.500
21546400.000 4562010.000 -965.000
21545925.000 4561537.500 -961.250
21546050.000 4561482.500 -943.750
21545700.000 4560955.000 -922.500
21546175.000 4561440.000 -920.000
21545950.000 4560870.000 -875.000
21546900.000 4561680.000 -1090.000
21546550.000 4561192.500 -1013.750
21547000.000 4562270.000 -930.000
21547375.000 4562022.500 -1023.750
21547300.000 4561390.000 -1090.000
21547600.000 4562530.000 -895.000
21547850.000 4562365.000 -957.500
21547675.000 4561805.000 -1023.750
21548200.000 4562790.000 -860.000
21548325.000 4562707.500 -891.250
21548050.000 4562220.000 -957.500
21548800.000 4563050.000 -825.000
21548425.000 4562635.000 -891.250
21548525.000 4562570.000 -873.750
21548250.000 4562090.000 -922.500
21548525.000 4562570.000 -873.750
21548250.000 4562090.000 -922.500
21548675.000 4562495.000 -915.000
21548350.000 4562040.000 -950.000
21549000.000 4562950.000 -880.000
21548750.000 4562450.000 -897.500
21549725.000 4563430.000 -811.250
21549875.000 4563355.000 -852.500
21549725.000 4563430.000 -811.250
21550650.000 4563810.000 -797.500
21549725.000 4563500.000 -815.000
21549725.000 4563565.000 -803.750
21550650.000 4563950.000 -805.000
21550650.000 4564080.000 -782.500
21551575.000 4564400.000 -795.000
21551575.000 4564190.000 -783.750
21551575.000 4564595.000 -761.250
21552500.000 4564850.000 -785.000
21552500.000 4564570.000 -770.000
21552500.000 4565110.000 -740.000
21552750.000 4565060.000 -712.500
21552750.000 4564850.000 -701.250
21552750.000 4565255.000 -678.750
21553000.000 4565270.000 -640.000
21552750.000 4565262.500 -682.500
21553000.000 4565400.000 -617.500
21552750.000 4565267.500 -682.500
21553000.000 4565415.000 -625.000
21552750.000 4565277.500 -675.000
21553000.000 4565425.000 -625.000
21553000.000 4565445.000 -610.000
21553250.000 4565582.500 -567.500
21553250.000 4565567.500 -567.500
21553250.000 4565612.500 -545.000
21553500.000 4565740.000 -510.000
21553500.000 4565720.000 -510.000
21553500.000 4565780.000 -480.000
21553500.000 4565690.000 -495.000
21553250.000 4565545.000 -556.250
21553250.000 4565480.000 -567.500
21553250.000 4565410.000 -563.750
21553000.000 4565130.000 -632.500
21553250.000 4565342.500 -546.250
21553000.000 4564995.000 -597.500
21552750.000 4564647.500 -648.750
21552500.000 4564300.000 -700.000
21551850.000 4564050.000 -763.750
21551775.000 4564082.500 -783.750
21551850.000 4563847.500 -711.250
21551200.000 4563530.000 -757.500
21551200.000 4563395.000 -722.500
21550550.000 4563010.000 -751.250
21551050.000 4563595.000 -797.500
21550550.000 4562942.500 -733.750
21549900.000 4562490.000 -745.000
21550325.000 4563107.500 -811.250
21549600.000 4562620.000 -825.000
21549425.000 4562105.000 -796.250
21550100.000 4563220.000 -845.000
21550900.000 4563670.000 -820.000
21549300.000 4562770.000 -870.000
21549200.000 4562202.500 -856.250
21550750.000 4563760.000 -825.000
21548975.000 4562315.000 -890.000
21548800.000 4561785.000 -887.500
21548650.000 4561860.000 -910.000
21548950.000 4561720.000 -847.500
21548475.000 4561335.000 -898.750
21548400.000 4561367.500 -918.750
21548000.000 4560950.000 -950.000
21548325.000 4561405.000 -930.000
21548500.000 4561950.000 -915.000
21548250.000 4561450.000 -932.500
21548025.000 4561585.000 -985.000
21547700.000 4561130.000 -1020.000
21547975.000 4561610.000 -971.250
21547375.000 4560645.000 -908.750
21547150.000 4560780.000 -961.250
21546750.000 4560340.000 -867.500
21546850.000 4560975.000 -1013.750
21547975.000 4561610.000 -971.250
21546600.000 4560430.000 -902.500
21546400.000 4560560.000 -937.500
21546200.000 4560705.000 -937.500
21546050.000 4560080.000 -843.750
21545950.000 4560145.000 -861.250
21546125.000 4560035.000 -826.250
21545500.000 4559730.000 -785.000
21545850.000 4560217.500 -861.250
21545725.000 4560300.000 -830.000
21545350.000 4560427.500 -901.250
21545000.000 4559900.000 -880.000
21545375.000 4559632.500 -795.000
21545000.000 4559760.000 -866.250
21545250.000 4559535.000 -805.000
21545000.000 4559760.000 -866.250
21545000.000 4559620.000 -852.500
21544900.000 4559797.500 -905.000
21544525.000 4559962.500 -957.500
21544550.000 4559805.000 -965.000
21544350.000 4560025.000 -975.000
21544200.000 4559930.000 -1000.000
21543950.000 4560020.000 -992.500
21544800.000 4559695.000 -930.000
21544050.000 4559835.000 -1025.000
21545000.000 4559620.000 -852.500
21545000.000 4559480.000 -838.750
21545125.000 4559437.500 -815.000
21550650.000 4563810.000 -797.500
21551575.000 4564190.000 -783.750
21551625.000 4564165.000 -797.500
21551700.000 4564120.000 -795.000

POLYGONS 325 1300
3 1 0 5
3 137 133 130
3 119 98 99
3 184 1 185
3 44 46 48
3 93 186 187
3 101 98 119
3 23 21 41
3 82 83 141
3 127 128 126
3 51 49 52
3 91 92 94
3 125 127 124
3 178 177 176
3 81 150 149
3 143 149 148
3 161 167 166
3 127 126 124
3 161 166 163
3 118 101 119
3 26 38 39
3 66 70 69
3 169 165 168
3 74 71 72
3 168 167 60
3 41 21 42
3 84 82 85
3 118 120 115
3 0 6 5
3 181 177 4
3 119 99 121
3 63 64 157
3 122 96 123
3 87 84 186
3 173 174 171
3 19 15 182
3 11 40 12
3 108 109 111
3 116 103 117
3 120 119 121
3 147 152 154
3 174 183 171
3 110 115 113
3 73 158 77
3 44 41 42
3 89 88 90
3 2 1 3
3 20 16 18
3 66 67 70
3 178 47 179
3 17 26 14
3 74 76 78
3 102 97 100
3 101 100 98
3 78 76 79
3 69 70 73
3 142 146 145
3 154 155 156
3 0 15 6
3 183 184 185
3 31 32 28
3 50 178 176
3 158 152 153
3 107 110 109
3 57 58 59
3 5 9 8
3 15 0 182
3 111 109 112
3 35 37 36
3 155 159 156
3 134 138 139
3 18 19 43
3 143 148 146
3 58 60 59
3 139 142 144
3 78 79 81
3 34 35 32
3 159 160 162
3 180 19 182
3 22 16 20
3 49 50 53
3 105 103 116
3 111 112 114
3 165 169 170
3 166 165 163
3 56 60 58
3 16 15 18
3 67 63 157
3 179 180 182
3 98 97 95
3 102 100 103
3 136 138 134
3 59 62 61
3 157 64 160
3 181 4 2
3 179 4 177
3 70 152 158
3 52 56 55
3 186 84 85
3 169 175 173
3 79 153 151
3 189 130 125
3 46 44 45
3 188 137 189
3 187 188 96
3 148 147 146
3 16 24 17
3 25 33 26
3 106 104 107
3 55 56 58
3 169 173 171
3 38 37 39
3 15 13 6
3 88 87 90
3 26 33 38
3 171 183 172
3 21 20 18
3 4 0 2
3 24 27 25
3 110 116 115
3 27 28 25
3 5 6 9
3 49 53 52
3 175 176 177
3 32 36 33
3 133 134 132
3 85 82 138
3 188 140 137
3 94 95 97
3 175 177 181
3 23 20 21
3 189 137 130
3 170 171 172
3 54 52 55
3 50 46 178
3 50 169 53
3 188 189 96
3 182 0 4
3 124 126 123
3 14 39 40
3 186 85 140
3 57 59 61
3 107 105 110
3 160 163 162
3 156 159 164
3 137 136 133
3 67 157 155
3 152 155 154
3 117 103 101
3 182 4 179
3 169 171 170
3 109 110 113
3 43 180 45
3 139 141 142
3 181 3 174
3 24 16 22
3 28 32 33
3 2 3 181
3 11 14 40
3 85 138 136
3 168 165 167
3 89 74 88
3 74 75 76
3 90 87 93
3 105 116 110
3 67 152 70
3 0 1 2
3 75 77 76
3 47 180 179
3 43 21 18
3 157 160 159
3 43 19 180
3 1 5 7
3 86 74 84
3 39 37 40
3 3 184 183
3 92 93 96
3 57 63 65
3 57 54 55
3 91 90 92
3 155 157 159
3 30 28 27
3 12 37 10
3 45 180 47
3 130 133 129
3 159 162 164
3 68 69 71
3 53 169 168
3 133 132 129
3 18 15 19
3 65 63 66
3 135 139 144
3 89 90 91
3 6 13 11
3 42 21 43
3 92 96 95
3 70 158 73
3 153 152 151
3 99 96 122
3 82 80 83
3 98 95 99
3 146 147 145
3 7 5 8
3 63 57 61
3 9 12 10
3 46 45 47
3 135 132 134
3 129 132 131
3 88 74 86
3 40 37 12
3 162 165 164
3 187 186 140
3 87 86 84
3 138 82 141
3 149 150 148
3 84 74 82
3 100 97 98
3 130 129 127
3 3 1 184
3 169 176 175
3 44 42 45
3 71 69 72
3 140 85 136
3 31 34 32
3 51 52 54
3 56 168 60
3 121 99 122
3 103 100 101
3 48 49 51
3 17 25 26
3 150 147 148
3 106 97 104
3 116 117 115
3 65 66 68
3 80 78 81
3 151 150 81
3 64 61 62
3 36 37 38
3 93 187 96
3 106 107 108
3 142 143 146
3 30 31 28
3 73 77 75
3 136 134 133
3 129 131 128
3 140 136 137
3 93 87 186
3 63 61 64
3 32 35 36
3 52 53 56
3 72 73 75
3 81 149 80
3 174 3 183
3 69 73 72
3 68 66 69
3 64 62 161
3 81 79 151
3 172 183 185
3 60 62 59
3 129 128 127
3 152 147 151
3 14 26 39
3 175 174 173
3 138 141 139
3 79 77 153
3 16 17 13
3 74 78 80
3 104 105 107
3 13 17 14
3 24 25 17
3 28 33 25
3 152 67 155
3 48 46 49
3 9 11 12
3 57 55 58
3 29 30 27
3 80 149 83
3 108 107 109
3 179 177 178
3 144 142 145
3 45 42 43
3 109 113 112
3 13 14 11
3 76 77 79
3 64 161 160
3 99 95 96
3 90 93 92
3 169 50 176
3 6 11 9
3 104 102 105
3 46 50 49
3 15 16 13
3 163 165 162
3 94 92 95
3 181 174 175
3 161 62 167
3 82 74 80
3 33 36 38
3 189 125 96
3 187 140 188
3 46 47 178
3 125 124 96
3 125 130 127
3 74 72 75
3 24 29 27
3 102 103 105
3 8 9 10
3 22 20 23
3 53 168 56
3 77 158 153
3 117 101 118
3 151 147 150
3 63 67 66
3 60 167 62
3 124 123 96
3 88 86 87
3 141 83 143
3 104 97 102
3 167 165 166
3 135 134 139
3 160 161 163
3 83 149 143
3 141 143 142
3 118 119 120
3 117 118 115

POINT_DATA 190
COLOR_SCALARS GocadColor 4
0 1 0.48333 1
0 1 0.48333 1
0 1 0.48333 1
0 1 0.48333 1
0 1 0.48333 1
0 1 0.48333 1
0 1 0.48333 1
0 1 0.48333 1
0 1 0.48333 1
0 1 0.48333 1
0 1 0.48333 1
0 1 0.48333 1
0 1 0.48333 1
0 1 0.48333 1
0 1 0.48333 1
0 1 0.48333 1
0 1 0.48333 1
0 1 0.48333 1
0 1 0.48333 1
0 1 0.48333 1
0 1 0.48333 1
0 1 0.48333 1
0 1 0.48333 1
0 1 0.48333 1
0 1 0.48333 1
0 1 0.48333 1
0 1 0.48333 1
0 1 0.48333 1
0 1 0.48333 1
0 1 0.48333 1
0 1 0.48333 1
0 1 0.48333 1
0 1 0.48333 1
0 1 0.48333 1
0 1 0.48333 1
0 1 0.48333 1
0 1 0.48333 1
0 1 0.48333 1
0 1 0.48333 1
0 1 0.48333 1
0 1 0.48333 1
0 1 0.48333 1
0 1 0.48333 1
0 1 0.48333 1
0 1 0.48333 1
0 1 0.48333 1
0 1 0.48333 1
0 1 0.48333 1
0 1 0.48333 1
0 1 0.48333 1
0 1 0.48333 1
0 1 0.48333 1
0 1 0.48333 1
0 1 0.48333 1
0 1 0.48333 1
0 1 0.48333 1
0 1 0.48333 1
0 1 0.48333 1
0 1 0.48333 1
0 1 0.48333 1
0 1 0.48333 1
0 1 0.48333 1
0 1 0.48333 1
0 1 0.48333 1
0 1 0.48333 1
0 1 0.48333 1
0 1 0.48333 1
0 1 0.48333 1
0 1 0.48333 1
0 1 0.48333 1
0 1 0.48333 1
0 1 0.48333 1
0 1 0.48333 1
0 1 0.48333 1
0 1 0.48333 1
0 1 0.48333 1
0 1 0.48333 1
0 1 0.48333 1
0 1 0.48333 1
0 1 0.48333 1
0 1 0.48333 1
0 1 0.48333 1
0 1 0.48333 1
0 1 0.48333 1
0 1 0.48333 1
0 1 0.48333 1
0 1 0.48333 1
0 1 0.48333 1
0 1 0.48333 1
0 1 0.48333 1
0 1 0.48333 1
0 1 0.48333 1
0 1 0.48333 1
0 1 0.48333 1
0 1 0.48333 1
0 1 0.48333 1
0 1 0.48333 1
0 1 0.48333 1
0 1 0.48333 1
0 1 0.48333 1
0 1 0.48333 1
0 1 0.48333 1
0 1 0.48333 1
0 1 0.48333 1
0 1 0.48333 1
0 1 0.48333 1
0 1 0.48333 1
0 1 0.48333 1
0 1 0.48333 1
0 1 0.48333 1
0 1 0.48333 1
0 1 0.48333 1
0 1 0.48333 1
0 1 0.48333 1
0 1 0.48333 1
0 1 0.48333 1
0 1 0.48333 1
0 1 0.48333 1
0 1 0.48333 1
0 1 0.48333 1
0 1 0.48333 1
0 1 0.48333 1
0 1 0.48333 1
0 1 0.48333 1
0 1 0.48333 1
0 1 0.48333 1
0 1 0.48333 1
0 1 0.48333 1
0 1 0.48333 1
0 1 0.48333 1
0 1 0.48333 1
0 1 0.48333 1
0 1 0.48333 1
0 1 0.48333 1
0 1 0.48333 1
0 1 0.48333 1
0 1 0.48333 1
0 1 0.48333 1
0 1 0.48333 1
0 1 0.48333 1
0 1 0.48333 1
0 1 0.48333 1
0 1 0.48333 1
0 1 0.48333 1
0 1 0.48333 1
0 1 0.48333 1
0 1 0.48333 1
0 1 0.48333 1
0 1 0.48333 1
0 1 0.48333 1
0 1 0.48333 1
0 1 0.48333 1
0 1 0.48333 1
0 1 0.48333 1
0 1 0.48333 1
0 1 0.48333 1
0 1 0.48333 1
0 1 0.48333 1
0 1 0.48333 1
0 1 0.48333 1
0 1 0.48333 1
0 1 0.48333 1
0 1 0.48333 1
0 1 0.48333 1
0 1 0.48333 1
0 1 0.48333 1
0 1 0.48333 1
0 1 0.48333 1
0 1 0.48333 1
0 1 0.48333 1
0 1 0.48333 1
0 1 0.48333 1
0 1 0.48333 1
0 1 0.48333 1
0 1 0.48333 1
0 1 0.48333 1
0 1 0.48333 1
0 1 0.48333 1
0 1 0.48333 1
0 1 0.48333 1
0 1 0.48333 1
0 1 0.48333 1
0 1 0.48333 1
0 1 0.48333 1
0 1 0.48333 1
0 1 0.48333 1
0 1 0.48333 1
0 1 0.48333 1
0 1 0.48333 1
0 1 0.48333 1

