# vtk DataFile Version 3.0
Gocad TSurf to VTK
ASCII
DATASET POLYDATA
POINTS 362 float
21608125.000 4580472.500 -3052.500
21607900.000 4580487.500 -3082.500
21608000.000 4580325.000 -3125.000
21607650.000 4580525.000 -3137.500
21608150.000 4580315.000 -3105.000
21608100.000 4580630.000 -3000.000
21608275.000 4580465.000 -3052.500
21607800.000 4580650.000 -3040.000
21608075.000 4580945.000 -2998.750
21608300.000 4580930.000 -2968.750
21607850.000 4580952.500 -3073.750
21608200.000 4581245.000 -3007.500
21607500.000 4580660.000 -3140.000
21607425.000 4580532.500 -3212.500
21607350.000 4580275.000 -3332.500
21607350.000 4580405.000 -3285.000
21608175.000 4580157.500 -3157.500
21608200.000 4580000.000 -3210.000
21608250.000 4580310.000 -3105.000
21608450.000 4580280.000 -3117.500
21609000.000 4580590.000 -3040.000
21608900.000 4580427.500 -3088.750
21608975.000 4580900.000 -2998.750
21608600.000 4581225.000 -2937.500
21609425.000 4580905.000 -3022.500
21609150.000 4581250.000 -3005.000
21609550.000 4580357.500 -3008.750
21609300.000 4580392.500 -3086.250
21610100.000 4580875.000 -2898.750
21610300.000 4580520.000 -2875.000
21609900.000 4581230.000 -2922.500
21610350.000 4581310.000 -2847.500
21609450.000 4581250.000 -3005.000
21609700.000 4581585.000 -2946.250
21609475.000 4581595.000 -2987.500
21609225.000 4581580.000 -2987.500
21609300.000 4581910.000 -2970.000
21608925.000 4581520.000 -2916.250
21608950.000 4581210.000 -2957.500
21608900.000 4581830.000 -2875.000
21608700.000 4581530.000 -2906.250
21608550.000 4581537.500 -2941.250
21608350.000 4581240.000 -2957.500
21609175.000 4582055.000 -2721.250
21609475.000 4582115.000 -2792.500
21609450.000 4582280.000 -2567.500
21609750.000 4582335.000 -2615.000
21610200.000 4582415.000 -2540.000
21609725.000 4582505.000 -2413.750
21609875.000 4582532.500 -2437.500
21610000.000 4582730.000 -2260.000
21610100.000 4582572.500 -2400.000
21610300.000 4582770.000 -2190.000
21610325.000 4582602.500 -2347.500
21610350.000 4582435.000 -2505.000
21610375.000 4582267.500 -2662.500
21610400.000 4582100.000 -2820.000
21610375.000 4581705.000 -2833.750
21610325.000 4580915.000 -2861.250
21610150.000 4580135.000 -2895.000
21609850.000 4579952.500 -2946.250
21610225.000 4580327.500 -2885.000
21610075.000 4579942.500 -2905.000
21609100.000 4580057.500 -3178.750
21609000.000 4579890.000 -3225.000
21610000.000 4579750.000 -2915.000
21609000.000 4580065.000 -3178.750
21609000.000 4580240.000 -3132.500
21608700.000 4580102.500 -3186.250
21608600.000 4579940.000 -3235.000
21608525.000 4580110.000 -3176.250
21608650.000 4579735.000 -3242.500
21608550.000 4579765.000 -3235.000
21608950.000 4579697.500 -3235.000
21608700.000 4579530.000 -3250.000
21609700.000 4579592.500 -3002.500
21609100.000 4579277.500 -3177.500
21610050.000 4579260.000 -2895.000
21610075.000 4579015.000 -2885.000
21610100.000 4578770.000 -2875.000
21608800.000 4579120.000 -3265.000
21608850.000 4579312.500 -3255.000
21609850.000 4578667.500 -2892.500
21608950.000 4578740.000 -3105.000
21610050.000 4578625.000 -2805.000
21610000.000 4578480.000 -2735.000
21610000.000 4578190.000 -2595.000
21609025.000 4578550.000 -3025.000
21609950.000 4578335.000 -2665.000
21609900.000 4578190.000 -2595.000
21609925.000 4578067.500 -2521.250
21609700.000 4578105.000 -2622.500
21609950.000 4577945.000 -2447.500
21608950.000 4578105.000 -2825.000
21608650.000 4578165.000 -2887.500
21608875.000 4577977.500 -2765.000
21609975.000 4577822.500 -2373.750
21610000.000 4577700.000 -2300.000
21609700.000 4577552.500 -2325.000
21608800.000 4577480.000 -2552.500
21610150.000 4577100.000 -1913.750
21609100.000 4577257.500 -2375.000
21610200.000 4576900.000 -1785.000
21608800.000 4577110.000 -2400.000
21608800.000 4577295.000 -2476.250
21609950.000 4576732.500 -1896.250
21609000.000 4576670.000 -2315.000
21610200.000 4576720.000 -1753.750
21610200.000 4576540.000 -1722.500
21610200.000 4576720.000 -1753.750
21609450.000 4576397.500 -2118.750
21610200.000 4576360.000 -1691.250
21610200.000 4576180.000 -1660.000
21609475.000 4576107.500 -2011.250
21610225.000 4576070.000 -1583.750
21610225.000 4576070.000 -1583.750
21609750.000 4575985.000 -1792.500
21608825.000 4575877.500 -2211.250
21610250.000 4575960.000 -1507.500
21610275.000 4575850.000 -1431.250
21610300.000 4575740.000 -1355.000
21608700.000 4575760.000 -2205.000
21609500.000 4575495.000 -1905.000
21608700.000 4575160.000 -2775.000
21610300.000 4575485.000 -1480.000
21610300.000 4575230.000 -1605.000
21610300.000 4575357.500 -1542.500
21609550.000 4574995.000 -2232.500
21610325.000 4575130.000 -1626.250
21608400.000 4574755.000 -3000.000
21610400.000 4574830.000 -1690.000
21607325.000 4574972.500 -3311.250
21607100.000 4574160.000 -3455.000
21607900.000 4575470.000 -2762.500
21607075.000 4575607.500 -2910.000
21607100.000 4575780.000 -2750.000
21608475.000 4575900.000 -2365.000
21608675.000 4575887.500 -2295.000
21607275.000 4575915.000 -2773.750
21607600.000 4576592.500 -2838.750
21606750.000 4576095.000 -2972.500
21605650.000 4575945.000 -3487.500
21605300.000 4576470.000 -3710.000
21605400.000 4575790.000 -3585.000
21606200.000 4575440.000 -3487.500
21605325.000 4576300.000 -3678.750
21605425.000 4575600.000 -3658.750
21606100.000 4574740.000 -3735.000
21606400.000 4574595.000 -3662.500
21605500.000 4575030.000 -3880.000
21605550.000 4574860.000 -3877.500
21605475.000 4575220.000 -3806.250
21605450.000 4575410.000 -3732.500
21605600.000 4574690.000 -3875.000
21605650.000 4574520.000 -3872.500
21605700.000 4574350.000 -3870.000
21605775.000 4574162.500 -3892.500
21605850.000 4573975.000 -3915.000
21606175.000 4573812.500 -3867.500
21605925.000 4573787.500 -3937.500
21606000.000 4573600.000 -3960.000
21607500.000 4573870.000 -3320.000
21607050.000 4573460.000 -3312.500
21606150.000 4573462.500 -3796.250
21607800.000 4573525.000 -2892.500
21607900.000 4573410.000 -2750.000
21608200.000 4573597.500 -2738.750
21609500.000 4574162.500 -2416.250
21610300.000 4574167.500 -1838.750
21607700.000 4574057.500 -3258.750
21608500.000 4574505.000 -2982.500
21610075.000 4574662.500 -1943.750
21609425.000 4574327.500 -2451.250
21610550.000 4574640.000 -1702.500
21610625.000 4574537.500 -1708.750
21610475.000 4574735.000 -1696.250
21610700.000 4574440.000 -1715.000
21610700.000 4574372.500 -1673.750
21610700.000 4574305.000 -1632.500
21610700.000 4574237.500 -1591.250
21610700.000 4574170.000 -1550.000
21609350.000 4573585.000 -2052.500
21607950.000 4572210.000 -2837.500
21610725.000 4574067.500 -1501.250
21610750.000 4573965.000 -1452.500
21610075.000 4573672.500 -1703.750
21610750.000 4573960.000 -1452.500
21610775.000 4573862.500 -1403.750
21610800.000 4573585.000 -1392.500
21610800.000 4573750.000 -1355.000
21609300.000 4572875.000 -2182.500
21610800.000 4573410.000 -1430.000
21610800.000 4573235.000 -1467.500
21610800.000 4573060.000 -1505.000
21610800.000 4573232.500 -1467.500
21608450.000 4571860.000 -2657.500
21610325.000 4572712.500 -1750.000
21609375.000 4572017.500 -2240.000
21610800.000 4572877.500 -1575.000
21610800.000 4572695.000 -1645.000
21610800.000 4572512.500 -1715.000
21610800.000 4572330.000 -1785.000
21609900.000 4571570.000 -1995.000
21608675.000 4571445.000 -2557.500
21610825.000 4572115.000 -1715.000
21610850.000 4571900.000 -1645.000
21610875.000 4571685.000 -1575.000
21610900.000 4571470.000 -1505.000
21609350.000 4570740.000 -2135.000
21610850.000 4571280.000 -1502.500
21608000.000 4570267.500 -2733.750
21608000.000 4570100.000 -2720.000
21607700.000 4570807.500 -2876.250
21607550.000 4570335.000 -2930.000
21606800.000 4570920.000 -3180.000
21606875.000 4570832.500 -3170.000
21607100.000 4571202.500 -3092.500
21606825.000 4571105.000 -3208.750
21606850.000 4571290.000 -3237.500
21606875.000 4571475.000 -3266.250
21606900.000 4571660.000 -3295.000
21607400.000 4572180.000 -3102.500
21606875.000 4571822.500 -3315.000
21606850.000 4571985.000 -3335.000
21606825.000 4572147.500 -3355.000
21606800.000 4572310.000 -3375.000
21606750.000 4572495.000 -3357.500
21607200.000 4572870.000 -3082.500
21606700.000 4572680.000 -3340.000
21606650.000 4572865.000 -3322.500
21606600.000 4573050.000 -3305.000
21606450.000 4573187.500 -3468.750
21606300.000 4573325.000 -3632.500
21606950.000 4570745.000 -3160.000
21607025.000 4570657.500 -3150.000
21607100.000 4570570.000 -3140.000
21607150.000 4570412.500 -3115.000
21607200.000 4570255.000 -3090.000
21607250.000 4570097.500 -3065.000
21607775.000 4570217.500 -2825.000
21607300.000 4569940.000 -3040.000
21607425.000 4569805.000 -2925.000
21607950.000 4569925.000 -2685.000
21607550.000 4569670.000 -2810.000
21610125.000 4570420.000 -1721.250
21608325.000 4569385.000 -2490.000
21610700.000 4570710.000 -1495.000
21610675.000 4570557.500 -1522.500
21610750.000 4570900.000 -1497.500
21610800.000 4571090.000 -1500.000
21610650.000 4570405.000 -1550.000
21610625.000 4570252.500 -1577.500
21609450.000 4569485.000 -2240.000
21610600.000 4570100.000 -1605.000
21610550.000 4569922.500 -1723.750
21610600.000 4570090.000 -1605.000
21610550.000 4569760.000 -1842.500
21610500.000 4569755.000 -1842.500
21609975.000 4569452.500 -2160.000
21608900.000 4569060.000 -2540.000
21610525.000 4569590.000 -1961.250
21610400.000 4569420.000 -2080.000
21610450.000 4569587.500 -1961.250
21610400.000 4569260.000 -1992.500
21610325.000 4569260.000 -1992.500
21609500.000 4568920.000 -2135.000
21610250.000 4569100.000 -1905.000
21609800.000 4568850.000 -1932.500
21610200.000 4568940.000 -1817.500
21609125.000 4568632.500 -2161.250
21609200.000 4568490.000 -2035.000
21608875.000 4568887.500 -2442.500
21608825.000 4568542.500 -2247.500
21608625.000 4568500.000 -2302.500
21608800.000 4568370.000 -2150.000
21608450.000 4568630.000 -2455.000
21608275.000 4568760.000 -2607.500
21608100.000 4568890.000 -2760.000
21608175.000 4569055.000 -2670.000
21608025.000 4569017.500 -2715.000
21607950.000 4569145.000 -2670.000
21607875.000 4569272.500 -2625.000
21607800.000 4569400.000 -2580.000
21607850.000 4569575.000 -2615.000
21607675.000 4569535.000 -2695.000
21610100.000 4568780.000 -1730.000
21610175.000 4568940.000 -1817.500
21606050.000 4577010.000 -3167.500
21606850.000 4577160.000 -2913.750
21605600.000 4577325.000 -3282.500
21605700.000 4577610.000 -3140.000
21605600.000 4577325.000 -3282.500
21607000.000 4577410.000 -2820.000
21606825.000 4577602.500 -2871.250
21607000.000 4577580.000 -2808.750
21605850.000 4577752.500 -3111.250
21606475.000 4577987.500 -2973.750
21607000.000 4577750.000 -2797.500
21606000.000 4577895.000 -3082.500
21606150.000 4578037.500 -3053.750
21606300.000 4578180.000 -3025.000
21607000.000 4578090.000 -2775.000
21606900.000 4578455.000 -3117.500
21607500.000 4578670.000 -3170.000
21606425.000 4578340.000 -3133.750
21606550.000 4578500.000 -3242.500
21606675.000 4578660.000 -3351.250
21606800.000 4578820.000 -3460.000
21607075.000 4578960.000 -3407.500
21607600.000 4578847.500 -3190.000
21606800.000 4579030.000 -3495.000
21606800.000 4579240.000 -3530.000
21607625.000 4579240.000 -3302.500
21606800.000 4579450.000 -3565.000
21606800.000 4579660.000 -3600.000
21607975.000 4579535.000 -3240.000
21607800.000 4579202.500 -3230.000
21607550.000 4579765.000 -3340.000
21608250.000 4579810.000 -3216.250
21606900.000 4579782.500 -3557.500
21607000.000 4579905.000 -3515.000
21607100.000 4580027.500 -3472.500
21607200.000 4580150.000 -3430.000
21607275.000 4580277.500 -3357.500
21608300.000 4579620.000 -3222.500
21608150.000 4579660.000 -3217.500
21608500.000 4579590.000 -3235.000
21608350.000 4579430.000 -3228.750
21608425.000 4579050.000 -3193.750
21608900.000 4579505.000 -3245.000
21608050.000 4579140.000 -3193.750
21608725.000 4578960.000 -3216.250
21608450.000 4578860.000 -3152.500
21608650.000 4578800.000 -3167.500
21608500.000 4578480.000 -3070.000
21608475.000 4578670.000 -3111.250
21608150.000 4578920.000 -3167.500
21608025.000 4578760.000 -3133.750
21607900.000 4578600.000 -3100.000
21607900.000 4578795.000 -3137.500
21608375.000 4578350.000 -2996.250
21607950.000 4578280.000 -2937.500
21608000.000 4577960.000 -2775.000
21608200.000 4577747.500 -2681.250
21607750.000 4577822.500 -2786.250
21607250.000 4577547.500 -2808.750
21607700.000 4579025.000 -3210.000
21607900.000 4578990.000 -3175.000
21608000.000 4578960.000 -3162.500
21608125.000 4579490.000 -3221.250
21608600.000 4577322.500 -2493.750
21607200.000 4577137.500 -2826.250
21608550.000 4576912.500 -2511.250
21608750.000 4576900.000 -2441.250
21608600.000 4576270.000 -2565.000
21609075.000 4576112.500 -2223.750
21608625.000 4576142.500 -2475.000
21610375.000 4574930.000 -1668.750
21610350.000 4575030.000 -1647.500
21610325.000 4575130.000 -1626.250
21609000.000 4580415.000 -3086.250
21610075.000 4579942.500 -2905.000

POLYGONS 565 2260
3 234 235 212
3 292 290 287
3 238 239 213
3 30 31 57
3 196 193 195
3 116 114 113
3 61 29 59
3 216 214 203
3 281 245 282
3 209 208 249
3 190 191 188
3 43 44 45
3 103 351 352
3 149 150 147
3 338 334 337
3 184 187 186
3 80 79 76
3 180 165 181
3 19 18 16
3 334 340 94
3 77 65 75
3 251 250 244
3 114 118 115
3 355 356 117
3 60 62 59
3 64 71 73
3 197 201 200
3 262 257 260
3 39 37 35
3 293 297 296
3 347 330 316
3 53 51 47
3 78 76 79
3 99 98 95
3 72 324 326
3 156 157 148
3 118 116 119
3 20 22 9
3 203 214 212
3 172 167 176
3 103 352 353
3 64 65 60
3 158 161 132
3 290 289 287
3 303 307 302
3 170 169 167
3 167 168 176
3 113 114 112
3 197 200 196
3 24 20 26
3 135 138 140
3 227 226 182
3 346 347 316
3 102 105 107
3 152 151 144
3 66 64 63
3 142 141 140
3 171 173 175
3 57 58 56
3 276 259 277
3 343 344 345
3 39 41 40
3 35 25 34
3 53 54 52
3 8 5 9
3 39 36 43
3 5 0 6
3 252 245 259
3 10 8 11
3 247 244 250
3 50 48 49
3 94 340 342
3 190 181 182
3 102 103 105
3 98 100 97
3 114 115 112
3 184 185 187
3 36 39 35
3 246 248 208
3 303 338 309
3 239 211 210
3 333 335 334
3 164 161 162
3 124 125 126
3 134 144 131
3 12 7 10
3 171 130 129
3 224 223 221
3 99 104 101
3 271 269 265
3 4 2 16
3 42 9 23
3 167 161 166
3 144 147 131
3 122 123 127
3 190 185 181
3 34 32 33
3 259 271 265
3 67 66 63
3 304 300 302
3 55 54 47
3 333 332 335
3 301 342 303
3 182 221 195
3 317 314 315
3 315 349 325
3 17 69 70
3 166 168 167
3 62 65 361
3 193 192 190
3 325 349 324
3 105 103 106
3 26 27 63
3 258 256 252
3 104 103 101
3 201 197 202
3 81 80 76
3 5 7 1
3 238 240 239
3 265 267 266
3 203 208 202
3 240 211 239
3 253 255 251
3 314 312 315
3 261 262 260
3 43 36 44
3 121 117 137
3 83 333 334
3 90 91 92
3 2 3 14
3 17 322 317
3 244 245 252
3 245 278 259
3 290 292 293
3 307 303 308
3 230 165 162
3 281 280 278
3 53 47 54
3 38 37 40
3 80 331 83
3 195 197 196
3 77 78 65
3 77 75 76
3 275 273 271
3 122 127 125
3 108 105 110
3 109 107 108
3 89 86 90
3 272 269 271
3 20 21 360
3 354 353 352
3 330 336 328
3 144 149 147
3 184 181 185
3 320 319 317
3 77 76 78
3 52 54 55
3 257 254 256
3 331 333 83
3 195 216 203
3 244 242 245
3 136 137 356
3 20 360 27
3 46 44 47
3 202 208 207
3 169 129 132
3 40 42 23
3 293 292 294
3 258 263 261
3 328 80 81
3 212 213 210
3 130 171 175
3 134 135 144
3 32 30 33
3 27 360 63
3 252 256 254
3 253 251 252
3 345 344 297
3 258 252 259
3 245 281 278
3 345 350 343
3 31 58 57
3 3 2 1
3 79 80 82
3 31 30 28
3 325 324 318
3 142 145 141
3 21 20 19
3 192 194 191
3 10 7 8
3 21 67 360
3 20 9 19
3 341 338 303
3 65 64 75
3 147 148 131
3 69 17 318
3 164 165 166
3 150 153 147
3 203 210 208
3 69 318 72
3 155 156 148
3 268 285 286
3 37 39 40
3 135 134 133
3 222 220 221
3 79 82 84
3 176 168 177
3 6 0 4
3 304 302 305
3 263 264 261
3 210 211 208
3 92 91 96
3 235 236 213
3 136 135 121
3 0 2 4
3 165 230 227
3 226 225 182
3 225 221 182
3 22 23 9
3 135 143 144
3 312 316 315
3 348 347 339
3 44 56 47
3 16 2 14
3 174 172 176
3 229 228 227
3 279 278 280
3 342 344 343
3 35 37 25
3 297 293 294
3 124 120 122
3 177 168 178
3 141 135 140
3 24 32 25
3 13 15 14
3 213 212 235
3 95 93 94
3 178 168 179
3 128 125 127
3 322 17 14
3 18 4 16
3 309 339 346
3 160 163 162
3 308 303 309
3 64 73 75
3 211 240 241
3 273 274 272
3 203 212 210
3 142 287 289
3 192 193 194
3 330 347 348
3 97 96 95
3 267 285 268
3 266 264 263
3 154 155 148
3 165 164 162
3 179 168 180
3 328 81 327
3 294 292 345
3 72 326 71
3 136 356 139
3 138 135 136
3 56 33 57
3 301 300 296
3 103 353 106
3 360 67 63
3 68 66 21
3 69 72 71
3 9 6 19
3 188 185 190
3 278 277 259
3 350 99 343
3 86 82 87
3 19 68 21
3 7 3 1
3 73 71 74
3 246 211 244
3 299 298 296
3 242 211 241
3 117 121 116
3 25 38 22
3 140 138 139
3 23 22 38
3 69 64 68
3 166 165 168
3 192 191 190
3 103 102 101
3 36 35 34
3 273 272 271
3 260 257 256
3 49 47 51
3 351 288 139
3 28 29 58
3 358 128 357
3 283 284 282
3 133 134 131
3 26 60 59
3 334 94 87
3 8 9 42
3 48 45 46
3 70 19 16
3 33 56 44
3 122 121 123
3 102 107 109
3 17 70 16
3 267 270 285
3 173 171 172
3 232 231 162
3 309 346 312
3 265 269 267
3 356 354 139
3 206 205 202
3 354 113 106
3 7 12 3
3 124 126 120
3 169 161 167
3 37 38 25
3 290 291 289
3 153 154 147
3 129 131 132
3 33 30 57
3 123 131 129
3 184 186 183
3 340 338 341
3 185 188 187
3 346 339 347
3 83 87 82
3 354 355 113
3 41 42 40
3 328 327 330
3 99 101 98
3 183 180 181
3 195 193 190
3 99 350 104
3 138 136 139
3 295 293 296
3 326 74 71
3 107 105 108
3 354 106 353
3 327 349 330
3 268 286 266
3 350 103 104
3 243 242 241
3 301 296 297
3 337 334 335
3 60 65 62
3 143 141 145
3 307 306 302
3 121 133 123
3 279 277 278
3 309 338 339
3 300 299 296
3 218 217 216
3 70 69 68
3 121 120 116
3 169 170 129
3 311 310 308
3 157 159 158
3 342 343 95
3 110 112 111
3 200 199 196
3 148 132 131
3 86 85 82
3 103 292 351
3 284 283 242
3 100 101 102
3 193 196 198
3 9 5 6
3 24 28 30
3 204 201 202
3 48 46 49
3 172 170 167
3 93 91 87
3 196 199 198
3 68 64 66
3 237 238 213
3 6 4 18
3 120 121 122
3 23 38 40
3 195 221 216
3 220 219 216
3 125 128 359
3 170 171 129
3 73 74 329
3 348 339 337
3 213 239 210
3 66 67 21
3 188 189 187
3 6 18 19
3 20 27 26
3 329 74 81
3 354 352 139
3 12 13 3
3 183 181 184
3 74 326 327
3 25 32 34
3 295 290 293
3 86 91 90
3 116 113 117
3 355 354 356
3 160 161 158
3 289 291 142
3 63 64 60
3 128 127 357
3 211 246 208
3 349 315 330
3 82 80 83
3 315 316 330
3 297 294 345
3 195 203 197
3 161 160 162
3 315 325 318
3 161 164 166
3 298 295 296
3 11 42 41
3 254 255 253
3 22 24 25
3 258 261 260
3 231 230 162
3 5 1 0
3 29 26 59
3 317 315 318
3 326 324 327
3 318 17 317
3 81 74 327
3 233 234 212
3 336 332 328
3 252 254 253
3 215 233 212
3 3 13 14
3 310 307 308
3 46 47 49
3 130 127 129
3 272 274 269
3 87 83 334
3 157 158 148
3 146 152 144
3 159 160 158
3 236 237 213
3 311 308 312
3 334 338 340
3 143 146 144
3 339 338 337
3 171 170 172
3 151 149 144
3 11 8 42
3 120 119 116
3 306 305 302
3 136 121 137
3 219 218 216
3 121 135 133
3 36 34 33
3 244 211 242
3 88 85 86
3 345 292 350
3 127 130 357
3 50 49 51
3 15 323 14
3 123 133 131
3 308 309 312
3 269 270 267
3 314 313 312
3 258 259 265
3 303 302 301
3 343 99 95
3 265 266 263
3 319 314 317
3 300 301 302
3 0 1 2
3 349 327 324
3 113 110 106
3 86 89 88
3 248 249 208
3 267 268 266
3 154 148 147
3 172 174 173
3 91 93 95
3 165 227 182
3 331 332 333
3 263 258 265
3 243 284 242
3 141 143 135
3 292 288 351
3 242 283 245
3 330 348 336
3 137 117 356
3 337 335 336
3 111 108 110
3 52 50 51
3 75 73 76
3 45 44 46
3 91 95 96
3 32 24 30
3 181 165 182
3 73 329 76
3 112 110 113
3 312 346 316
3 269 274 270
3 91 86 87
3 64 69 71
3 44 36 33
3 247 246 244
3 84 82 85
3 223 222 221
3 336 348 337
3 63 60 26
3 321 320 317
3 287 142 140
3 7 5 8
3 251 244 252
3 313 311 312
3 283 282 245
3 139 288 140
3 214 215 212
3 52 51 53
3 258 260 256
3 288 287 140
3 322 321 317
3 292 103 350
3 158 132 148
3 114 116 118
3 101 100 98
3 232 162 163
3 336 335 332
3 230 229 227
3 221 220 216
3 182 195 190
3 209 207 208
3 323 322 14
3 20 24 22
3 352 351 139
3 161 169 132
3 359 128 358
3 94 93 87
3 113 355 117
3 344 301 297
3 29 28 26
3 56 55 47
3 110 105 106
3 288 292 287
3 94 342 95
3 14 17 16
3 28 24 26
3 31 28 58
3 19 70 68
3 275 271 276
3 80 328 331
3 228 226 227
3 217 214 216
3 331 328 332
3 98 97 95
3 72 318 324
3 329 81 76
3 204 202 205
3 125 124 122
3 197 203 202
3 225 224 221
3 123 129 127
3 340 341 342
3 342 301 344
3 207 206 202
3 342 341 303
3 62 361 59
3 168 165 180
3 276 271 259

POINT_DATA 362
COLOR_SCALARS GocadColor 4
1 0.498039 0.313726 1
1 0.498039 0.313726 1
1 0.498039 0.313726 1
1 0.498039 0.313726 1
1 0.498039 0.313726 1
1 0.498039 0.313726 1
1 0.498039 0.313726 1
1 0.498039 0.313726 1
1 0.498039 0.313726 1
1 0.498039 0.313726 1
1 0.498039 0.313726 1
1 0.498039 0.313726 1
1 0.498039 0.313726 1
1 0.498039 0.313726 1
1 0.498039 0.313726 1
1 0.498039 0.313726 1
1 0.498039 0.313726 1
1 0.498039 0.313726 1
1 0.498039 0.313726 1
1 0.498039 0.313726 1
1 0.498039 0.313726 1
1 0.498039 0.313726 1
1 0.498039 0.313726 1
1 0.498039 0.313726 1
1 0.498039 0.313726 1
1 0.498039 0.313726 1
1 0.498039 0.313726 1
1 0.498039 0.313726 1
1 0.498039 0.313726 1
1 0.498039 0.313726 1
1 0.498039 0.313726 1
1 0.498039 0.313726 1
1 0.498039 0.313726 1
1 0.498039 0.313726 1
1 0.498039 0.313726 1
1 0.498039 0.313726 1
1 0.498039 0.313726 1
1 0.498039 0.313726 1
1 0.498039 0.313726 1
1 0.498039 0.313726 1
1 0.498039 0.313726 1
1 0.498039 0.313726 1
1 0.498039 0.313726 1
1 0.498039 0.313726 1
1 0.498039 0.313726 1
1 0.498039 0.313726 1
1 0.498039 0.313726 1
1 0.498039 0.313726 1
1 0.498039 0.313726 1
1 0.498039 0.313726 1
1 0.498039 0.313726 1
1 0.498039 0.313726 1
1 0.498039 0.313726 1
1 0.498039 0.313726 1
1 0.498039 0.313726 1
1 0.498039 0.313726 1
1 0.498039 0.313726 1
1 0.498039 0.313726 1
1 0.498039 0.313726 1
1 0.498039 0.313726 1
1 0.498039 0.313726 1
1 0.498039 0.313726 1
1 0.498039 0.313726 1
1 0.498039 0.313726 1
1 0.498039 0.313726 1
1 0.498039 0.313726 1
1 0.498039 0.313726 1
1 0.498039 0.313726 1
1 0.498039 0.313726 1
1 0.498039 0.313726 1
1 0.498039 0.313726 1
1 0.498039 0.313726 1
1 0.498039 0.313726 1
1 0.498039 0.313726 1
1 0.498039 0.313726 1
1 0.498039 0.313726 1
1 0.498039 0.313726 1
1 0.498039 0.313726 1
1 0.498039 0.313726 1
1 0.498039 0.313726 1
1 0.498039 0.313726 1
1 0.498039 0.313726 1
1 0.498039 0.313726 1
1 0.498039 0.313726 1
1 0.498039 0.313726 1
1 0.498039 0.313726 1
1 0.498039 0.313726 1
1 0.498039 0.313726 1
1 0.498039 0.313726 1
1 0.498039 0.313726 1
1 0.498039 0.313726 1
1 0.498039 0.313726 1
1 0.498039 0.313726 1
1 0.498039 0.313726 1
1 0.498039 0.313726 1
1 0.498039 0.313726 1
1 0.498039 0.313726 1
1 0.498039 0.313726 1
1 0.498039 0.313726 1
1 0.498039 0.313726 1
1 0.498039 0.313726 1
1 0.498039 0.313726 1
1 0.498039 0.313726 1
1 0.498039 0.313726 1
1 0.498039 0.313726 1
1 0.498039 0.313726 1
1 0.498039 0.313726 1
1 0.498039 0.313726 1
1 0.498039 0.313726 1
1 0.498039 0.313726 1
1 0.498039 0.313726 1
1 0.498039 0.313726 1
1 0.498039 0.313726 1
1 0.498039 0.313726 1
1 0.498039 0.313726 1
1 0.498039 0.313726 1
1 0.498039 0.313726 1
1 0.498039 0.313726 1
1 0.498039 0.313726 1
1 0.498039 0.313726 1
1 0.498039 0.313726 1
1 0.498039 0.313726 1
1 0.498039 0.313726 1
1 0.498039 0.313726 1
1 0.498039 0.313726 1
1 0.498039 0.313726 1
1 0.498039 0.313726 1
1 0.498039 0.313726 1
1 0.498039 0.313726 1
1 0.498039 0.313726 1
1 0.498039 0.313726 1
1 0.498039 0.313726 1
1 0.498039 0.313726 1
1 0.498039 0.313726 1
1 0.498039 0.313726 1
1 0.498039 0.313726 1
1 0.498039 0.313726 1
1 0.498039 0.313726 1
1 0.498039 0.313726 1
1 0.498039 0.313726 1
1 0.498039 0.313726 1
1 0.498039 0.313726 1
1 0.498039 0.313726 1
1 0.498039 0.313726 1
1 0.498039 0.313726 1
1 0.498039 0.313726 1
1 0.498039 0.313726 1
1 0.498039 0.313726 1
1 0.498039 0.313726 1
1 0.498039 0.313726 1
1 0.498039 0.313726 1
1 0.498039 0.313726 1
1 0.498039 0.313726 1
1 0.498039 0.313726 1
1 0.498039 0.313726 1
1 0.498039 0.313726 1
1 0.498039 0.313726 1
1 0.498039 0.313726 1
1 0.498039 0.313726 1
1 0.498039 0.313726 1
1 0.498039 0.313726 1
1 0.498039 0.313726 1
1 0.498039 0.313726 1
1 0.498039 0.313726 1
1 0.498039 0.313726 1
1 0.498039 0.313726 1
1 0.498039 0.313726 1
1 0.498039 0.313726 1
1 0.498039 0.313726 1
1 0.498039 0.313726 1
1 0.498039 0.313726 1
1 0.498039 0.313726 1
1 0.498039 0.313726 1
1 0.498039 0.313726 1
1 0.498039 0.313726 1
1 0.498039 0.313726 1
1 0.498039 0.313726 1
1 0.498039 0.313726 1
1 0.498039 0.313726 1
1 0.498039 0.313726 1
1 0.498039 0.313726 1
1 0.498039 0.313726 1
1 0.498039 0.313726 1
1 0.498039 0.313726 1
1 0.498039 0.313726 1
1 0.498039 0.313726 1
1 0.498039 0.313726 1
1 0.498039 0.313726 1
1 0.498039 0.313726 1
1 0.498039 0.313726 1
1 0.498039 0.313726 1
1 0.498039 0.313726 1
1 0.498039 0.313726 1
1 0.498039 0.313726 1
1 0.498039 0.313726 1
1 0.498039 0.313726 1
1 0.498039 0.313726 1
1 0.498039 0.313726 1
1 0.498039 0.313726 1
1 0.498039 0.313726 1
1 0.498039 0.313726 1
1 0.498039 0.313726 1
1 0.498039 0.313726 1
1 0.498039 0.313726 1
1 0.498039 0.313726 1
1 0.498039 0.313726 1
1 0.498039 0.313726 1
1 0.498039 0.313726 1
1 0.498039 0.313726 1
1 0.498039 0.313726 1
1 0.498039 0.313726 1
1 0.498039 0.313726 1
1 0.498039 0.313726 1
1 0.498039 0.313726 1
1 0.498039 0.313726 1
1 0.498039 0.313726 1
1 0.498039 0.313726 1
1 0.498039 0.313726 1
1 0.498039 0.313726 1
1 0.498039 0.313726 1
1 0.498039 0.313726 1
1 0.498039 0.313726 1
1 0.498039 0.313726 1
1 0.498039 0.313726 1
1 0.498039 0.313726 1
1 0.498039 0.313726 1
1 0.498039 0.313726 1
1 0.498039 0.313726 1
1 0.498039 0.313726 1
1 0.498039 0.313726 1
1 0.498039 0.313726 1
1 0.498039 0.313726 1
1 0.498039 0.313726 1
1 0.498039 0.313726 1
1 0.498039 0.313726 1
1 0.498039 0.313726 1
1 0.498039 0.313726 1
1 0.498039 0.313726 1
1 0.498039 0.313726 1
1 0.498039 0.313726 1
1 0.498039 0.313726 1
1 0.498039 0.313726 1
1 0.498039 0.313726 1
1 0.498039 0.313726 1
1 0.498039 0.313726 1
1 0.498039 0.313726 1
1 0.498039 0.313726 1
1 0.498039 0.313726 1
1 0.498039 0.313726 1
1 0.498039 0.313726 1
1 0.498039 0.313726 1
1 0.498039 0.313726 1
1 0.498039 0.313726 1
1 0.498039 0.313726 1
1 0.498039 0.313726 1
1 0.498039 0.313726 1
1 0.498039 0.313726 1
1 0.498039 0.313726 1
1 0.498039 0.313726 1
1 0.498039 0.313726 1
1 0.498039 0.313726 1
1 0.498039 0.313726 1
1 0.498039 0.313726 1
1 0.498039 0.313726 1
1 0.498039 0.313726 1
1 0.498039 0.313726 1
1 0.498039 0.313726 1
1 0.498039 0.313726 1
1 0.498039 0.313726 1
1 0.498039 0.313726 1
1 0.498039 0.313726 1
1 0.498039 0.313726 1
1 0.498039 0.313726 1
1 0.498039 0.313726 1
1 0.498039 0.313726 1
1 0.498039 0.313726 1
1 0.498039 0.313726 1
1 0.498039 0.313726 1
1 0.498039 0.313726 1
1 0.498039 0.313726 1
1 0.498039 0.313726 1
1 0.498039 0.313726 1
1 0.498039 0.313726 1
1 0.498039 0.313726 1
1 0.498039 0.313726 1
1 0.498039 0.313726 1
1 0.498039 0.313726 1
1 0.498039 0.313726 1
1 0.498039 0.313726 1
1 0.498039 0.313726 1
1 0.498039 0.313726 1
1 0.498039 0.313726 1
1 0.498039 0.313726 1
1 0.498039 0.313726 1
1 0.498039 0.313726 1
1 0.498039 0.313726 1
1 0.498039 0.313726 1
1 0.498039 0.313726 1
1 0.498039 0.313726 1
1 0.498039 0.313726 1
1 0.498039 0.313726 1
1 0.498039 0.313726 1
1 0.498039 0.313726 1
1 0.498039 0.313726 1
1 0.498039 0.313726 1
1 0.498039 0.313726 1
1 0.498039 0.313726 1
1 0.498039 0.313726 1
1 0.498039 0.313726 1
1 0.498039 0.313726 1
1 0.498039 0.313726 1
1 0.498039 0.313726 1
1 0.498039 0.313726 1
1 0.498039 0.313726 1
1 0.498039 0.313726 1
1 0.498039 0.313726 1
1 0.498039 0.313726 1
1 0.498039 0.313726 1
1 0.498039 0.313726 1
1 0.498039 0.313726 1
1 0.498039 0.313726 1
1 0.498039 0.313726 1
1 0.498039 0.313726 1
1 0.498039 0.313726 1
1 0.498039 0.313726 1
1 0.498039 0.313726 1
1 0.498039 0.313726 1
1 0.498039 0.313726 1
1 0.498039 0.313726 1
1 0.498039 0.313726 1
1 0.498039 0.313726 1
1 0.498039 0.313726 1
1 0.498039 0.313726 1
1 0.498039 0.313726 1
1 0.498039 0.313726 1
1 0.498039 0.313726 1
1 0.498039 0.313726 1
1 0.498039 0.313726 1
1 0.498039 0.313726 1
1 0.498039 0.313726 1
1 0.498039 0.313726 1
1 0.498039 0.313726 1
1 0.498039 0.313726 1
1 0.498039 0.313726 1
1 0.498039 0.313726 1
1 0.498039 0.313726 1
1 0.498039 0.313726 1
1 0.498039 0.313726 1
1 0.498039 0.313726 1
1 0.498039 0.313726 1
1 0.498039 0.313726 1
1 0.498039 0.313726 1
1 0.498039 0.313726 1
1 0.498039 0.313726 1
1 0.498039 0.313726 1
1 0.498039 0.313726 1
1 0.498039 0.313726 1
1 0.498039 0.313726 1
1 0.498039 0.313726 1
1 0.498039 0.313726 1
1 0.498039 0.313726 1
1 0.498039 0.313726 1

