# vtk DataFile Version 3.0
Gocad TSurf to VTK
ASCII
DATASET POLYDATA
POINTS 392 float
21568175.000 4548490.000 -500.000
21568050.000 4548515.000 -478.750
21567950.000 4548665.000 -466.250
21567850.000 4548625.000 -480.000
21567900.000 4548740.000 -460.000
21568025.000 4548317.500 -503.750
21568200.000 4548292.500 -503.750
21567800.000 4548510.000 -500.000
21567800.000 4548370.000 -515.000
21567675.000 4548597.500 -501.250
21567750.000 4548645.000 -487.500
21567600.000 4548550.000 -515.000
21567650.000 4548400.000 -526.250
21567525.000 4548642.500 -512.500
21567400.000 4548610.000 -530.000
21567650.000 4548675.000 -495.000
21567450.000 4548725.000 -495.000
21567775.000 4548707.500 -477.500
21567675.000 4548732.500 -477.500
21567825.000 4548692.500 -473.750
21567875.000 4548682.500 -470.000
21567225.000 4548717.500 -512.500
21567000.000 4548710.000 -530.000
21567050.000 4548547.500 -555.000
21567350.000 4548472.500 -555.000
21566900.000 4548570.000 -565.000
21566800.000 4548585.000 -582.500
21567100.000 4548385.000 -580.000
21566800.000 4548430.000 -600.000
21567300.000 4548335.000 -580.000
21567400.000 4548305.000 -572.500
21567150.000 4548222.500 -605.000
21567125.000 4547927.500 -550.000
21566550.000 4548017.500 -597.500
21566975.000 4547662.500 -390.000
21566400.000 4548335.000 -687.500
21566200.000 4548210.000 -740.000
21566600.000 4548460.000 -635.000
21566250.000 4548062.500 -650.000
21566300.000 4547915.000 -560.000
21566500.000 4547885.000 -525.000
21566350.000 4547767.500 -470.000
21566400.000 4547620.000 -380.000
21566500.000 4547482.500 -355.000
21566850.000 4547300.000 -295.000
21567325.000 4547347.500 -261.250
21566600.000 4547345.000 -330.000
21566700.000 4547207.500 -305.000
21566800.000 4547070.000 -280.000
21567575.000 4547035.000 -337.500
21567525.000 4547305.000 -282.500
21567200.000 4546710.000 -412.500
21567575.000 4546770.000 -406.250
21566800.000 4546932.500 -325.000
21566800.000 4546795.000 -370.000
21567000.000 4546615.000 -436.250
21567525.000 4546510.000 -488.750
21566800.000 4546657.500 -415.000
21566800.000 4546520.000 -460.000
21567200.000 4546145.000 -425.000
21567700.000 4545810.000 -335.000
21566825.000 4546367.500 -425.000
21566850.000 4546215.000 -390.000
21566875.000 4546062.500 -355.000
21566900.000 4545910.000 -320.000
21567550.000 4545722.500 -271.250
21567625.000 4545705.000 -282.500
21566950.000 4545797.500 -260.000
21567400.000 4545635.000 -207.500
21567550.000 4545600.000 -230.000
21567000.000 4545685.000 -200.000
21567250.000 4545547.500 -143.750
21567050.000 4545572.500 -140.000
21567100.000 4545460.000 -80.000
21567400.000 4545390.000 -125.000
21567400.000 4545240.000 -125.000
21568050.000 4545397.500 -296.250
21567775.000 4545677.500 -317.500
21567950.000 4545157.500 -272.500
21568200.000 4545240.000 -375.000
21567500.000 4545240.000 -167.500
21567900.000 4545035.000 -280.000
21567400.000 4545090.000 -125.000
21567250.000 4545090.000 -70.000
21567400.000 4544940.000 -125.000
21567700.000 4544940.000 -252.500
21567100.000 4544957.500 -31.250
21567400.000 4544790.000 -125.000
21567100.000 4545125.000 -47.500
21567000.000 4545120.000 -47.500
21567100.000 4545292.500 -63.750
21567050.000 4545290.000 -63.750
21566950.000 4544950.000 -31.250
21567100.000 4544790.000 -15.000
21566900.000 4544780.000 -15.000
21567250.000 4544647.500 -140.000
21567475.000 4544647.500 -222.500
21567075.000 4544577.500 -105.000
21567050.000 4544365.000 -195.000
21566925.000 4544570.000 -105.000
21566950.000 4544360.000 -195.000
21567025.000 4544152.500 -285.000
21567400.000 4544505.000 -265.000
21566975.000 4544150.000 -285.000
21567000.000 4543940.000 -375.000
21567550.000 4544362.500 -390.000
21567725.000 4544362.500 -460.000
21567750.000 4544505.000 -405.000
21567200.000 4543847.500 -435.000
21567750.000 4543895.000 -565.000
21567025.000 4543725.000 -413.750
21566900.000 4543622.500 -403.750
21567050.000 4543510.000 -452.500
21567600.000 4543662.500 -555.000
21567100.000 4543080.000 -530.000
21566800.000 4543305.000 -432.500
21567800.000 4543570.000 -615.000
21567825.000 4543312.500 -568.750
21568225.000 4544040.000 -747.500
21567875.000 4544160.000 -592.500
21568400.000 4543980.000 -825.000
21567975.000 4543487.500 -673.750
21568300.000 4544400.000 -710.000
21568900.000 4544475.000 -1265.000
21569100.000 4544700.000 -1295.000
21569100.000 4544500.000 -1450.000
21569150.000 4544235.000 -1608.750
21569100.000 4544550.000 -1411.250
21569100.000 4544600.000 -1372.500
21569100.000 4544552.500 -1411.250
21569100.000 4544657.500 -1333.750
21569100.000 4544710.000 -1295.000
21569100.000 4544732.500 -1205.000
21569100.000 4544755.000 -1115.000
21569000.000 4544800.000 -935.000
21568475.000 4544500.000 -766.250
21569100.000 4544775.000 -1025.000
21569100.000 4544800.000 -935.000
21569100.000 4544777.500 -1025.000
21569125.000 4544865.000 -955.000
21569100.000 4544930.000 -975.000
21569175.000 4544995.000 -995.000
21569175.000 4544995.000 -995.000
21569200.000 4545060.000 -1015.000
21568400.000 4545130.000 -515.000
21568800.000 4544910.000 -795.000
21569050.000 4545220.000 -890.000
21568100.000 4545127.500 -355.000
21568000.000 4545015.000 -335.000
21567900.000 4544902.500 -315.000
21567800.000 4544790.000 -295.000
21567850.000 4544912.500 -287.500
21567775.000 4544647.500 -350.000
21567925.000 4544692.500 -398.750
21567550.000 4544505.000 -320.000
21568300.000 4545355.000 -410.000
21569300.000 4545190.000 -1085.000
21569400.000 4545320.000 -1155.000
21569300.000 4545190.000 -1085.000
21569500.000 4545450.000 -1225.000
21568500.000 4545585.000 -480.000
21569600.000 4545580.000 -1295.000
21569425.000 4545710.000 -1183.750
21568825.000 4546000.000 -766.250
21569550.000 4545687.500 -1250.000
21569500.000 4545795.000 -1205.000
21569650.000 4545662.500 -1337.500
21569700.000 4545745.000 -1380.000
21569750.000 4545827.500 -1422.500
21569450.000 4545902.500 -1160.000
21569800.000 4545910.000 -1465.000
21569725.000 4546067.500 -1305.000
21569425.000 4546142.500 -1042.500
21569925.000 4546030.000 -1455.000
21570050.000 4546150.000 -1445.000
21570175.000 4546270.000 -1435.000
21569575.000 4546382.500 -985.000
21570300.000 4546390.000 -1425.000
21569525.000 4546687.500 -786.250
21569350.000 4546430.000 -831.250
21570125.000 4546575.000 -1236.250
21569775.000 4546945.000 -858.750
21570400.000 4546530.000 -1358.750
21570500.000 4546670.000 -1292.500
21570400.000 4546530.000 -1358.750
21570600.000 4546810.000 -1226.250
21570600.000 4546810.000 -1226.250
21570700.000 4546950.000 -1160.000
21569575.000 4546982.500 -708.750
21570525.000 4547115.000 -1107.500
21569525.000 4547277.500 -680.000
21570625.000 4547362.500 -1253.750
21570600.000 4547500.000 -1285.000
21570175.000 4547445.000 -1002.500
21570350.000 4547640.000 -1172.500
21570350.000 4547640.000 -1172.500
21569900.000 4547722.500 -921.250
21570100.000 4547780.000 -1060.000
21569450.000 4547890.000 -772.500
21569000.000 4547485.000 -550.000
21569700.000 4547947.500 -863.750
21569850.000 4547920.000 -947.500
21569600.000 4548060.000 -835.000
21568875.000 4548127.500 -650.000
21568550.000 4548390.000 -593.750
21568400.000 4547997.500 -541.250
21569450.000 4548165.000 -811.250
21568700.000 4548420.000 -642.500
21569750.000 4548225.000 -992.500
21569000.000 4548480.000 -740.000
21569800.000 4548280.000 -1045.000
21569350.000 4548645.000 -817.500
21569000.000 4548900.000 -676.250
21569775.000 4548412.500 -1007.500
21569725.000 4548677.500 -932.500
21569950.000 4548355.000 -1073.750
21570250.000 4548505.000 -1131.250
21569700.000 4548810.000 -895.000
21570400.000 4548580.000 -1160.000
21569000.000 4549040.000 -655.000
21568850.000 4548960.000 -635.000
21568800.000 4549120.000 -600.000
21568600.000 4548880.000 -572.500
21568400.000 4548640.000 -545.000
21568700.000 4549000.000 -586.250
21568575.000 4549025.000 -565.000
21568350.000 4548930.000 -530.000
21568125.000 4548835.000 -495.000
21568400.000 4548500.000 -545.000
21567950.000 4548195.000 -522.500
21567800.000 4547950.000 -560.000
21567800.000 4548230.000 -530.000
21567500.000 4548427.500 -543.750
21567875.000 4547802.500 -493.750
21568500.000 4547850.000 -560.000
21567575.000 4547567.500 -331.250
21567850.000 4547130.000 -330.000
21568550.000 4547005.000 -425.000
21568700.000 4547250.000 -390.000
21568175.000 4546665.000 -477.500
21568400.000 4546622.500 -512.500
21567950.000 4546570.000 -495.000
21567875.000 4545910.000 -418.750
21568200.000 4545622.500 -386.250
21568350.000 4546095.000 -600.000
21568200.000 4545367.500 -378.750
21569150.000 4546755.000 -617.500
21569075.000 4545970.000 -961.250
21568300.000 4547605.000 -427.500
21568450.000 4543610.000 -837.500
21569200.000 4544457.500 -1555.000
21569250.000 4544410.000 -1660.000
21569400.000 4544320.000 -1870.000
21569300.000 4544415.000 -1660.000
21569400.000 4544372.500 -1765.000
21569500.000 4544330.000 -1870.000
21569600.000 4544250.000 -1835.000
21569600.000 4544250.000 -1835.000
21568850.000 4543432.500 -1070.000
21569550.000 4543817.500 -1510.000
21568325.000 4542707.500 -507.500
21568100.000 4543052.500 -581.250
21568875.000 4542752.500 -622.500
21568450.000 4542535.000 -445.000
21569100.000 4542710.000 -640.000
21568700.000 4542190.000 -320.000
21568575.000 4542362.500 -382.500
21568950.000 4542167.500 -345.000
21569450.000 4542940.000 -912.500
21568943.375 4542155.000 -340.281
21568951.531 4542155.000 -340.399
21568704.375 4542155.000 -309.719
21568681.078 4542155.000 -309.595
21568635.531 4542155.000 -309.868
21568446.203 4542155.000 -315.241
21568220.828 4542155.000 -312.361
21568200.000 4542180.000 -320.000
21568300.000 4542365.000 -375.000
21568207.141 4542155.000 -312.500
21568177.266 4542155.000 -312.803
21568050.000 4542360.000 -375.000
21568050.000 4542155.000 -314.094
21567863.641 4542155.000 -315.985
21567900.000 4542540.000 -430.000
21567832.453 4542155.000 -316.301
21567726.922 4542155.000 -317.372
21567600.000 4542210.000 -335.000
21567475.000 4542427.500 -383.750
21567350.000 4542325.000 -373.750
21567700.000 4542675.000 -455.000
[...]
POINT_DATA 392
COLOR_SCALARS GocadColor 4
0.529412 0.807843 0.921569 1
0.529412 0.807843 0.921569 1
0.529412 0.807843 0.921569 1
0.529412 0.807843 0.921569 1
0.529412 0.807843 0.921569 1
0.529412 0.807843 0.921569 1
0.529412 0.807843 0.921569 1
0.529412 0.807843 0.921569 1
0.529412 0.807843 0.921569 1
0.529412 0.807843 0.921569 1
0.529412 0.807843 0.921569 1
0.529412 0.807843 0.921569 1
0.529412 0.807843 0.921569 1
0.529412 0.807843 0.921569 1
0.529412 0.807843 0.921569 1
0.529412 0.807843 0.921569 1
0.529412 0.807843 0.921569 1
0.529412 0.807843 0.921569 1
0.529412 0.807843 0.921569 1
0.529412 0.807843 0.921569 1
0.529412 0.807843 0.921569 1
0.529412 0.807843 0.921569 1
0.529412 0.807843 0.921569 1
0.529412 0.807843 0.921569 1
0.529412 0.807843 0.921569 1
0.529412 0.807843 0.921569 1
0.529412 0.807843 0.921569 1
0.529412 0.807843 0.921569 1
0.529412 0.807843 0.921569 1
0.529412 0.807843 0.921569 1
0.529412 0.807843 0.921569 1
0.529412 0.807843 0.921569 1
0.529412 0.807843 0.921569 1
0.529412 0.807843 0.921569 1
0.529412 0.807843 0.921569 1
0.529412 0.807843 0.921569 1
0.529412 0.807843 0.921569 1
0.529412 0.807843 0.921569 1
0.529412 0.807843 0.921569 1
0.529412 0.807843 0.921569 1
0.529412 0.807843 0.921569 1
0.529412 0.807843 0.921569 1
0.529412 0.807843 0.921569 1
0.529412 0.807843 0.921569 1
0.529412 0.807843 0.921569 1
0.529412 0.807843 0.921569 1
0.529412 0.807843 0.921569 1
0.529412 0.807843 0.921569 1
0.529412 0.807843 0.921569 1
0.529412 0.807843 0.921569 1
0.529412 0.807843 0.921569 1
0.529412 0.807843 0.921569 1
0.529412 0.807843 0.921569 1
0.529412 0.807843 0.921569 1
0.529412 0.807843 0.921569 1
0.529412 0.807843 0.921569 1
0.529412 0.807843 0.921569 1
0.529412 0.807843 0.921569 1
0.529412 0.807843 0.921569 1
0.529412 0.807843 0.921569 1
0.529412 0.807843 0.921569 1
0.529412 0.807843 0.921569 1
0.529412 0.807843 0.921569 1
0.529412 0.807843 0.921569 1
0.529412 0.807843 0.921569 1
0.529412 0.807843 0.921569 1
0.529412 0.807843 0.921569 1
0.529412 0.807843 0.921569 1
0.529412 0.807843 0.921569 1
0.529412 0.807843 0.921569 1
0.529412 0.807843 0.921569 1
0.529412 0.807843 0.921569 1
0.529412 0.807843 0.921569 1
0.529412 0.807843 0.921569 1
0.529412 0.807843 0.921569 1
0.529412 0.807843 0.921569 1
0.529412 0.807843 0.921569 1
0.529412 0.807843 0.921569 1
0.529412 0.807843 0.921569 1
0.529412 0.807843 0.921569 1
0.529412 0.807843 0.921569 1
0.529412 0.807843 0.921569 1
0.529412 0.807843 0.921569 1
0.529412 0.807843 0.921569 1
0.529412 0.807843 0.921569 1
0.529412 0.807843 0.921569 1
0.529412 0.807843 0.921569 1
0.529412 0.807843 0.921569 1
0.529412 0.807843 0.921569 1
0.529412 0.807843 0.921569 1
0.529412 0.807843 0.921569 1
0.529412 0.807843 0.921569 1
0.529412 0.807843 0.921569 1
0.529412 0.807843 0.921569 1
0.529412 0.807843 0.921569 1
0.529412 0.807843 0.921569 1
0.529412 0.807843 0.921569 1
0.529412 0.807843 0.921569 1
0.529412 0.807843 0.921569 1
0.529412 0.807843 0.921569 1
0.529412 0.807843 0.921569 1
0.529412 0.807843 0.921569 1
0.529412 0.807843 0.921569 1
0.529412 0.807843 0.921569 1
0.529412 0.807843 0.921569 1
0.529412 0.807843 0.921569 1
0.529412 0.807843 0.921569 1
0.529412 0.807843 0.921569 1
0.529412 0.807843 0.921569 1
0.529412 0.807843 0.921569 1
0.529412 0.807843 0.921569 1
0.529412 0.807843 0.921569 1
0.529412 0.807843 0.921569 1
0.529412 0.807843 0.921569 1
0.529412 0.807843 0.921569 1
0.529412 0.807843 0.921569 1
0.529412 0.807843 0.921569 1
0.529412 0.807843 0.921569 1
0.529412 0.807843 0.921569 1
0.529412 0.807843 0.921569 1
0.529412 0.807843 0.921569 1
0.529412 0.807843 0.921569 1
0.529412 0.807843 0.921569 1
0.529412 0.807843 0.921569 1
0.529412 0.807843 0.921569 1
0.529412 0.807843 0.921569 1
0.529412 0.807843 0.921569 1
0.529412 0.807843 0.921569 1
0.529412 0.807843 0.921569 1
0.529412 0.807843 0.921569 1
0.529412 0.807843 0.921569 1
0.529412 0.807843 0.921569 1
0.529412 0.807843 0.921569 1
0.529412 0.807843 0.921569 1
0.529412 0.807843 0.921569 1
0.529412 0.807843 0.921569 1
0.529412 0.807843 0.921569 1
0.529412 0.807843 0.921569 1
0.529412 0.807843 0.921569 1
0.529412 0.807843 0.921569 1
0.529412 0.807843 0.921569 1
0.529412 0.807843 0.921569 1
0.529412 0.807843 0.921569 1
0.529412 0.807843 0.921569 1
0.529412 0.807843 0.921569 1
0.529412 0.807843 0.921569 1
0.529412 0.807843 0.921569 1
0.529412 0.807843 0.921569 1
0.529412 0.807843 0.921569 1
0.529412 0.807843 0.921569 1
0.529412 0.807843 0.921569 1
0.529412 0.807843 0.921569 1
0.529412 0.807843 0.921569 1
0.529412 0.807843 0.921569 1
0.529412 0.807843 0.921569 1
0.529412 0.807843 0.921569 1
0.529412 0.807843 0.921569 1
0.529412 0.807843 0.921569 1
0.529412 0.807843 0.921569 1
0.529412 0.807843 0.921569 1
0.529412 0.807843 0.921569 1
0.529412 0.807843 0.921569 1
0.529412 0.807843 0.921569 1
0.529412 0.807843 0.921569 1
0.529412 0.807843 0.921569 1
0.529412 0.807843 0.921569 1
0.529412 0.807843 0.921569 1
0.529412 0.807843 0.921569 1
0.529412 0.807843 0.921569 1
0.529412 0.807843 0.921569 1
0.529412 0.807843 0.921569 1
0.529412 0.807843 0.921569 1
0.529412 0.807843 0.921569 1
0.529412 0.807843 0.921569 1
0.529412 0.807843 0.921569 1
0.529412 0.807843 0.921569 1
0.529412 0.807843 0.921569 1
0.529412 0.807843 0.921569 1
0.529412 0.807843 0.921569 1
0.529412 0.807843 0.921569 1
0.529412 0.807843 0.921569 1
0.529412 0.807843 0.921569 1
0.529412 0.807843 0.921569 1
0.529412 0.807843 0.921569 1
0.529412 0.807843 0.921569 1
0.529412 0.807843 0.921569 1
0.529412 0.807843 0.921569 1
0.529412 0.807843 0.921569 1
0.529412 0.807843 0.921569 1
0.529412 0.807843 0.921569 1
0.529412 0.807843 0.921569 1
0.529412 0.807843 0.921569 1
0.529412 0.807843 0.921569 1
0.529412 0.807843 0.921569 1
0.529412 0.807843 0.921569 1
0.529412 0.807843 0.921569 1
0.529412 0.807843 0.921569 1
0.529412 0.807843 0.921569 1
0.529412 0.807843 0.921569 1
0.529412 0.807843 0.921569 1
0.529412 0.807843 0.921569 1
0.529412 0.807843 0.921569 1
0.529412 0.807843 0.921569 1
0.529412 0.807843 0.921569 1
0.529412 0.807843 0.921569 1
0.529412 0.807843 0.921569 1
0.529412 0.807843 0.921569 1
0.529412 0.807843 0.921569 1
0.529412 0.807843 0.921569 1
0.529412 0.807843 0.921569 1
0.529412 0.807843 0.921569 1
0.529412 0.807843 0.921569 1
0.529412 0.807843 0.921569 1
0.529412 0.807843 0.921569 1
0.529412 0.807843 0.921569 1
0.529412 0.807843 0.921569 1
0.529412 0.807843 0.921569 1
0.529412 0.807843 0.921569 1
0.529412 0.807843 0.921569 1
0.529412 0.807843 0.921569 1
0.529412 0.807843 0.921569 1
0.529412 0.807843 0.921569 1
0.529412 0.807843 0.921569 1
0.529412 0.807843 0.921569 1
0.529412 0.807843 0.921569 1
0.529412 0.807843 0.921569 1
0.529412 0.807843 0.921569 1
0.529412 0.807843 0.921569 1
0.529412 0.807843 0.921569 1
0.529412 0.807843 0.921569 1
0.529412 0.807843 0.921569 1
0.529412 0.807843 0.921569 1
0.529412 0.807843 0.921569 1
0.529412 0.807843 0.921569 1
0.529412 0.807843 0.921569 1
0.529412 0.807843 0.921569 1
0.529412 0.807843 0.921569 1
0.529412 0.807843 0.921569 1
0.529412 0.807843 0.921569 1
0.529412 0.807843 0.921569 1
0.529412 0.807843 0.921569 1
0.529412 0.807843 0.921569 1
0.529412 0.807843 0.921569 1
0.529412 0.807843 0.921569 1
0.529412 0.807843 0.921569 1
0.529412 0.807843 0.921569 1
0.529412 0.807843 0.921569 1
0.529412 0.807843 0.921569 1
0.529412 0.807843 0.921569 1
0.529412 0.807843 0.921569 1
0.529412 0.807843 0.921569 1
0.529412 0.807843 0.921569 1
0.529412 0.807843 0.921569 1
0.529412 0.807843 0.921569 1
0.529412 0.807843 0.921569 1
0.529412 0.807843 0.921569 1
0.529412 0.807843 0.921569 1
0.529412 0.807843 0.921569 1
0.529412 0.807843 0.921569 1
0.529412 0.807843 0.921569 1
0.529412 0.807843 0.921569 1
0.529412 0.807843 0.921569 1
0.529412 0.807843 0.921569 1
0.529412 0.807843 0.921569 1
0.529412 0.807843 0.921569 1
0.529412 0.807843 0.921569 1
0.529412 0.807843 0.921569 1
0.529412 0.807843 0.921569 1
0.529412 0.807843 0.921569 1
0.529412 0.807843 0.921569 1
0.529412 0.807843 0.921569 1
0.529412 0.807843 0.921569 1
0.529412 0.807843 0.921569 1
0.529412 0.807843 0.921569 1
0.529412 0.807843 0.921569 1
0.529412 0.807843 0.921569 1
0.529412 0.807843 0.921569 1
0.529412 0.807843 0.921569 1
0.529412 0.807843 0.921569 1
0.529412 0.807843 0.921569 1
0.529412 0.807843 0.921569 1
0.529412 0.807843 0.921569 1
0.529412 0.807843 0.921569 1
0.529412 0.807843 0.921569 1
0.529412 0.807843 0.921569 1
0.529412 0.807843 0.921569 1
0.529412 0.807843 0.921569 1
0.529412 0.807843 0.921569 1
0.529412 0.807843 0.921569 1
0.529412 0.807843 0.921569 1
0.529412 0.807843 0.921569 1
0.529412 0.807843 0.921569 1
0.529412 0.807843 0.921569 1
0.529412 0.807843 0.921569 1
0.529412 0.807843 0.921569 1
0.529412 0.807843 0.921569 1
0.529412 0.807843 0.921569 1
0.529412 0.807843 0.921569 1
0.529412 0.807843 0.921569 1
0.529412 0.807843 0.921569 1
0.529412 0.807843 0.921569 1
0.529412 0.807843 0.921569 1
0.529412 0.807843 0.921569 1
0.529412 0.807843 0.921569 1
0.529412 0.807843 0.921569 1
0.529412 0.807843 0.921569 1
0.529412 0.807843 0.921569 1
0.529412 0.807843 0.921569 1
0.529412 0.807843 0.921569 1
0.529412 0.807843 0.921569 1
0.529412 0.807843 0.921569 1
0.529412 0.807843 0.921569 1
0.529412 0.807843 0.921569 1
0.529412 0.807843 0.921569 1
0.529412 0.807843 0.921569 1
0.529412 0.807843 0.921569 1
0.529412 0.807843 0.921569 1
0.529412 0.807843 0.921569 1
0.529412 0.807843 0.921569 1
0.529412 0.807843 0.921569 1
0.529412 0.807843 0.921569 1
0.529412 0.807843 0.921569 1
0.529412 0.807843 0.921569 1
0.529412 0.807843 0.921569 1
0.529412 0.807843 0.921569 1
0.529412 0.807843 0.921569 1
0.529412 0.807843 0.921569 1
0.529412 0.807843 0.921569 1
0.529412 0.807843 0.921569 1
0.529412 0.807843 0.921569 1
0.529412 0.807843 0.921569 1
0.529412 0.807843 0.921569 1
0.529412 0.807843 0.921569 1
0.529412 0.807843 0.921569 1
0.529412 0.807843 0.921569 1
0.529412 0.807843 0.921569 1
0.529412 0.807843 0.921569 1
0.529412 0.807843 0.921569 1
0.529412 0.807843 0.921569 1
0.529412 0.807843 0.921569 1
0.529412 0.807843 0.921569 1
0.529412 0.807843 0.921569 1
0.529412 0.807843 0.921569 1
0.529412 0.807843 0.921569 1
0.529412 0.807843 0.921569 1
0.529412 0.807843 0.921569 1
0.529412 0.807843 0.921569 1
0.529412 0.807843 0.921569 1
0.529412 0.807843 0.921569 1
0.529412 0.807843 0.921569 1
0.529412 0.807843 0.921569 1
0.529412 0.807843 0.921569 1
0.529412 0.807843 0.921569 1
0.529412 0.807843 0.921569 1
0.529412 0.807843 0.921569 1
0.529412 0.807843 0.921569 1
0.529412 0.807843 0.921569 1
0.529412 0.807843 0.921569 1
0.529412 0.807843 0.921569 1
0.529412 0.807843 0.921569 1
0.529412 0.807843 0.921569 1
0.529412 0.807843 0.921569 1
0.529412 0.807843 0.921569 1
0.529412 0.807843 0.921569 1
0.529412 0.807843 0.921569 1
0.529412 0.807843 0.921569 1
0.529412 0.807843 0.921569 1
0.529412 0.807843 0.921569 1
0.529412 0.807843 0.921569 1
0.529412 0.807843 0.921569 1
0.529412 0.807843 0.921569 1
0.529412 0.807843 0.921569 1
0.529412 0.807843 0.921569 1
0.529412 0.807843 0.921569 1
0.529412 0.807843 0.921569 1
0.529412 0.807843 0.921569 1
0.529412 0.807843 0.921569 1
0.529412 0.807843 0.921569 1
0.529412 0.807843 0.921569 1
0.529412 0.807843 0.921569 1
0.529412 0.807843 0.921569 1
0.529412 0.807843 0.921569 1
0.529412 0.807843 0.921569 1
0.529412 0.807843 0.921569 1
0.529412 0.807843 0.921569 1
0.529412 0.807843 0.921569 1
0.529412 0.807843 0.921569 1
0.529412 0.807843 0.921569 1
0.529412 0.807843 0.921569 1
0.529412 0.807843 0.921569 1
0.529412 0.807843 0.921569 1
0.529412 0.807843 0.921569 1

