# vtk DataFile Version 3.0
Gocad TSurf to VTK
ASCII
DATASET POLYDATA
POINTS 178 float
21603350.000 4590035.000 -753.750
21603275.000 4589635.000 -865.000
21602600.000 4589860.000 -1270.000
21603050.000 4589300.000 -997.500
21602350.000 4589940.000 -1402.500
21604200.000 4590070.000 -110.000
21604600.000 4590700.000 225.000
21604000.000 4589755.000 -277.500
21603675.000 4589165.000 -612.500
21604825.000 4590272.500 232.500
21604750.000 4590415.000 230.000
21604900.000 4590130.000 235.000
21604500.000 4589560.000 -55.000
21604975.000 4590017.500 260.000
21605050.000 4589905.000 285.000
21604850.000 4589620.000 140.000
21605125.000 4589792.500 310.000
21603550.000 4588890.000 -780.000
21603300.000 4588340.000 -1115.000
21603075.000 4588760.000 -1021.250
21603150.000 4588620.000 -1052.500
21603000.000 4588900.000 -990.000
21602900.000 4589015.000 -1098.750
21602800.000 4589130.000 -1207.500
21602700.000 4589245.000 -1316.250
21602600.000 4589360.000 -1425.000
21602475.000 4589525.000 -1452.500
21602350.000 4589690.000 -1480.000
21602225.000 4589855.000 -1507.500
21602100.000 4590020.000 -1535.000
21603850.000 4590705.000 -251.250
21604100.000 4591040.000 0.000
21604475.000 4590785.000 168.750
21604600.000 4590845.000 238.750
21604600.000 4590990.000 252.500
21604600.000 4591135.000 266.250
21604600.000 4591280.000 280.000
21604250.000 4591335.000 117.500
21603900.000 4591420.000 30.000
21604550.000 4591367.500 268.750
21604500.000 4591455.000 257.500
21604450.000 4591542.500 246.250
21604400.000 4591630.000 235.000
21604275.000 4591707.500 252.500
21603900.000 4591680.000 167.500
21603225.000 4591302.500 -332.500
21604150.000 4591785.000 270.000
21604025.000 4591862.500 287.500
21603900.000 4591810.000 236.250
21603900.000 4591940.000 305.000
21603675.000 4591727.500 92.500
21602175.000 4591210.000 -931.250
21602775.000 4590822.500 -792.500
21601900.000 4591250.000 -1060.000
21601850.000 4591085.000 -1161.250
21601800.000 4590920.000 -1262.500
21601750.000 4590755.000 -1363.750
21601700.000 4590590.000 -1465.000
21601800.000 4590447.500 -1482.500
21602550.000 4590555.000 -1040.000
21603825.000 4591052.500 -136.250
21601900.000 4590305.000 -1500.000
21602000.000 4590162.500 -1517.500
21603475.000 4591957.500 22.500
21601975.000 4591440.000 -1001.250
21603775.000 4592060.000 225.000
21603525.000 4592300.000 65.000
21603950.000 4592117.500 287.500
21604000.000 4592295.000 270.000
21603925.000 4592117.500 287.500
21603950.000 4592295.000 270.000
21603975.000 4592472.500 252.500
21604100.000 4592650.000 235.000
21603425.000 4592755.000 23.750
21604000.000 4592650.000 235.000
21603875.000 4592927.500 211.250
21603975.000 4592992.500 250.000
21603750.000 4593205.000 187.500
21603950.000 4593335.000 265.000
21603625.000 4593482.500 163.750
21603500.000 4593760.000 140.000
21603925.000 4593677.500 280.000
21603900.000 4594020.000 295.000
21603400.000 4594070.000 130.000
21603200.000 4593792.500 -111.250
21603700.000 4594265.000 246.250
21603300.000 4594380.000 120.000
21603775.000 4594360.000 301.250
21603500.000 4594510.000 197.500
21603650.000 4594700.000 307.500
21603300.000 4594755.000 148.750
21603525.000 4595040.000 313.750
21603100.000 4595000.000 100.000
21603400.000 4595380.000 320.000
21602600.000 4593857.500 -613.750
21602300.000 4593890.000 -865.000
21602300.000 4593647.500 -857.500
21602300.000 4593405.000 -850.000
21602300.000 4593162.500 -842.500
21602300.000 4592920.000 -835.000
21602575.000 4592795.000 -630.000
21602275.000 4592692.500 -832.500
21602250.000 4592465.000 -830.000
21602850.000 4592670.000 -425.000
21602225.000 4592237.500 -827.500
21602625.000 4591992.500 -542.500
21602200.000 4592010.000 -825.000
21602125.000 4591820.000 -883.750
21602050.000 4591630.000 -942.500
21603225.000 4588480.000 -1083.750
21605195.078 4589679.156 332.258
21605190.297 4589694.555 331.765
21605196.445 4589677.492 332.286
21605196.555 4589677.313 332.290
21603725.000 4588530.000 -826.250
21605198.203 4589674.781 332.345
21603375.000 4588215.000 -1076.250
21603450.000 4588090.000 -1037.500
21604575.000 4588910.000 -248.750
21605100.000 4589390.000 187.500
21603525.000 4587965.000 -998.750
21603600.000 4587840.000 -960.000
21605050.000 4589245.000 113.750
21605000.000 4588765.000 -178.750
21605075.000 4589010.000 -26.250
21603950.000 4587820.000 -928.750
21605000.000 4588095.000 -616.250
21605225.000 4588830.000 -158.750
21604300.000 4587800.000 -897.500
21604650.000 4587780.000 -866.250
21605000.000 4587760.000 -835.000
21605300.000 4588740.000 -225.000
21605700.000 4588245.000 -565.000
21605900.000 4588950.000 -235.000
21605275.000 4587757.500 -852.500
21605550.000 4587755.000 -870.000
21605825.000 4587752.500 -887.500
21606100.000 4587750.000 -905.000
21606175.000 4588077.500 -720.000
21605950.000 4589045.000 -155.000
21606500.000 4587815.000 -968.750
21606325.000 4588732.500 -350.000
21606900.000 4587880.000 -1032.500
21607300.000 4587945.000 -1096.250
21606400.000 4589060.000 -165.000
21606275.000 4589032.500 -182.500
21607700.000 4588010.000 -1160.000
21606050.000 4589235.000 5.000
21605875.000 4589337.500 -8.750
21605950.000 4589335.000 22.500
21605800.000 4589340.000 -40.000
21605825.000 4589057.500 -145.000
21605750.000 4589350.000 1.250
21605700.000 4589360.000 42.500
21605750.000 4589350.000 1.250
21605650.000 4589370.000 83.750
21605600.000 4589380.000 125.000
21605450.000 4589310.000 103.750
21605550.000 4589465.000 180.000
21605150.000 4589170.000 61.250
21605525.000 4589507.500 207.500
21605500.000 4589550.000 235.000
21605425.000 4589582.500 260.000
21605425.000 4589582.500 260.000
21605350.000 4589615.000 285.000
21605275.000 4589647.500 310.000
21605209.117 4589676.047 331.961
21606025.000 4589332.500 53.750
21606100.000 4589330.000 85.000
21606025.000 4589332.500 53.750
21604675.000 4590557.500 227.500
21605196.445 4589677.492 332.286
21605195.078 4589679.156 332.258
21605200.000 4589680.000 335.000
21605190.297 4589694.555 331.765
21605196.555 4589677.313 332.290
21605198.203 4589674.781 332.345
21605209.117 4589676.047 331.961

POLYGONS 242 968
3 161 122 162
3 101 100 102
3 124 159 127
3 9 7 5
3 18 110 112
3 120 117 118
3 21 22 3
3 163 162 164
3 53 64 63
3 90 91 89
3 167 169 168
3 88 86 90
3 72 74 71
3 156 155 151
3 117 114 118
3 160 156 158
3 166 119 115
3 58 57 52
3 85 86 88
3 35 34 32
3 75 76 74
3 76 77 78
3 100 103 102
3 7 8 1
3 121 118 122
3 130 131 132
3 51 45 52
3 108 107 105
3 54 53 51
3 95 92 94
3 88 90 89
3 77 79 78
3 41 40 37
3 150 152 154
3 94 92 90
3 143 144 146
3 49 67 69
3 167 149 169
3 15 14 16
3 72 71 66
3 71 68 66
3 12 14 15
3 148 149 147
3 123 124 127
3 162 165 164
3 65 63 66
3 98 97 84
3 6 5 0
3 46 44 47
3 29 31 30
3 158 156 157
3 107 106 105
3 97 96 94
3 143 141 144
3 68 65 66
3 26 27 2
3 123 127 126
3 8 21 1
3 116 18 114
3 81 80 82
3 114 119 118
3 53 49 50
3 125 123 126
3 140 137 138
3 4 30 0
3 84 86 83
3 135 134 132
3 88 89 87
3 160 158 159
3 118 119 122
3 65 68 67
3 22 23 3
3 140 138 141
3 128 125 126
3 61 58 59
3 79 80 81
3 166 165 119
3 85 88 87
3 147 167 168
3 18 109 17
3 50 49 48
3 31 60 38
3 49 63 65
3 100 99 80
3 44 48 47
3 6 32 33
3 145 147 144
3 125 121 123
3 129 128 126
3 130 129 126
3 102 103 104
3 38 45 44
3 23 24 3
3 12 8 7
3 13 12 11
3 83 82 80
3 119 165 162
3 52 45 60
3 109 20 17
3 50 44 45
3 51 53 50
3 51 50 45
3 117 116 114
3 161 159 122
3 133 131 151
3 149 167 147
3 73 72 66
3 108 105 63
3 138 137 133
3 139 133 150
3 80 79 73
3 85 83 86
3 2 27 4
3 154 152 153
3 103 100 73
3 101 99 100
3 123 121 122
3 11 12 7
3 72 73 75
3 27 28 4
3 19 8 17
3 2 4 0
3 43 38 44
3 12 15 17
3 80 84 83
3 106 104 103
3 115 114 113
3 59 52 60
3 64 108 63
3 60 31 59
3 46 43 44
3 68 70 67
3 133 137 132
3 36 35 32
3 5 1 0
3 28 29 4
3 31 29 59
3 110 15 111
3 105 66 63
3 25 2 3
3 145 139 147
3 99 98 84
3 15 18 17
3 12 17 8
3 19 21 8
3 150 151 152
3 161 162 163
3 67 70 69
3 119 114 115
3 25 26 2
3 139 148 147
3 31 36 32
3 15 16 111
3 90 92 91
3 39 37 40
3 4 29 30
3 45 38 60
3 103 105 106
3 62 61 59
3 56 55 51
3 84 94 90
3 142 141 143
3 124 123 122
3 80 99 84
3 136 135 132
3 32 34 33
3 131 126 127
3 78 79 81
3 18 15 110
3 29 62 59
3 37 31 38
3 145 141 139
3 75 74 72
3 153 152 151
3 86 84 90
3 131 156 151
3 18 112 113
3 38 42 37
3 44 50 48
3 21 3 1
3 139 150 148
3 82 85 87
3 82 83 85
3 132 131 133
3 0 1 2
3 114 18 113
3 155 153 151
3 131 127 157
3 141 138 139
3 36 31 37
3 141 145 144
3 147 168 144
3 11 7 9
3 100 80 73
3 49 65 67
3 58 52 59
3 48 49 47
3 2 1 3
3 77 75 73
3 96 95 94
3 56 51 52
3 6 170 5
3 161 160 159
3 162 122 119
3 142 140 141
3 134 130 132
3 30 31 32
3 5 7 1
3 42 41 37
3 9 5 10
3 75 77 76
3 73 66 103
3 79 77 73
3 20 19 17
3 131 130 126
3 137 136 132
3 39 36 37
3 55 54 51
3 138 133 139
3 0 30 32
3 151 150 133
3 158 157 159
3 157 127 159
3 42 38 43
3 6 0 32
3 49 53 63
3 24 25 3
3 92 93 91
3 57 56 52
3 159 124 122
3 12 13 14
3 170 10 5
3 97 94 84
3 156 131 157
3 103 66 105
3 121 120 118
3 68 71 70
3 176 173 177
3 175 171 173
3 172 174 173
3 171 172 173
3 176 175 173

POINT_DATA 178
COLOR_SCALARS GocadColor 4
1 0.74902 0.795026 1
1 0.74902 0.795026 1
1 0.74902 0.795026 1
1 0.74902 0.795026 1
1 0.74902 0.795026 1
1 0.74902 0.795026 1
1 0.74902 0.795026 1
1 0.74902 0.795026 1
1 0.74902 0.795026 1
1 0.74902 0.795026 1
1 0.74902 0.795026 1
1 0.74902 0.795026 1
1 0.74902 0.795026 1
1 0.74902 0.795026 1
1 0.74902 0.795026 1
1 0.74902 0.795026 1
1 0.74902 0.795026 1
1 0.74902 0.795026 1
1 0.74902 0.795026 1
1 0.74902 0.795026 1
1 0.74902 0.795026 1
1 0.74902 0.795026 1
1 0.74902 0.795026 1
1 0.74902 0.795026 1
1 0.74902 0.795026 1
1 0.74902 0.795026 1
1 0.74902 0.795026 1
1 0.74902 0.795026 1
1 0.74902 0.795026 1
1 0.74902 0.795026 1
1 0.74902 0.795026 1
1 0.74902 0.795026 1
1 0.74902 0.795026 1
1 0.74902 0.795026 1
1 0.74902 0.795026 1
1 0.74902 0.795026 1
1 0.74902 0.795026 1
1 0.74902 0.795026 1
1 0.74902 0.795026 1
1 0.74902 0.795026 1
1 0.74902 0.795026 1
1 0.74902 0.795026 1
1 0.74902 0.795026 1
1 0.74902 0.795026 1
1 0.74902 0.795026 1
1 0.74902 0.795026 1
1 0.74902 0.795026 1
1 0.74902 0.795026 1
1 0.74902 0.795026 1
1 0.74902 0.795026 1
1 0.74902 0.795026 1
1 0.74902 0.795026 1
1 0.74902 0.795026 1
1 0.74902 0.795026 1
1 0.74902 0.795026 1
1 0.74902 0.795026 1
1 0.74902 0.795026 1
1 0.74902 0.795026 1
1 0.74902 0.795026 1
1 0.74902 0.795026 1
1 0.74902 0.795026 1
1 0.74902 0.795026 1
1 0.74902 0.795026 1
1 0.74902 0.795026 1
1 0.74902 0.795026 1
1 0.74902 0.795026 1
1 0.74902 0.795026 1
1 0.74902 0.795026 1
1 0.74902 0.795026 1
1 0.74902 0.795026 1
1 0.74902 0.795026 1
1 0.74902 0.795026 1
1 0.74902 0.795026 1
1 0.74902 0.795026 1
1 0.74902 0.795026 1
1 0.74902 0.795026 1
1 0.74902 0.795026 1
1 0.74902 0.795026 1
1 0.74902 0.795026 1
1 0.74902 0.795026 1
1 0.74902 0.795026 1
1 0.74902 0.795026 1
1 0.74902 0.795026 1
1 0.74902 0.795026 1
1 0.74902 0.795026 1
1 0.74902 0.795026 1
1 0.74902 0.795026 1
1 0.74902 0.795026 1
1 0.74902 0.795026 1
1 0.74902 0.795026 1
1 0.74902 0.795026 1
1 0.74902 0.795026 1
1 0.74902 0.795026 1
1 0.74902 0.795026 1
1 0.74902 0.795026 1
1 0.74902 0.795026 1
1 0.74902 0.795026 1
1 0.74902 0.795026 1
1 0.74902 0.795026 1
1 0.74902 0.795026 1
1 0.74902 0.795026 1
1 0.74902 0.795026 1
1 0.74902 0.795026 1
1 0.74902 0.795026 1
1 0.74902 0.795026 1
1 0.74902 0.795026 1
1 0.74902 0.795026 1
1 0.74902 0.795026 1
1 0.74902 0.795026 1
1 0.74902 0.795026 1
1 0.74902 0.795026 1
1 0.74902 0.795026 1
1 0.74902 0.795026 1
1 0.74902 0.795026 1
1 0.74902 0.795026 1
1 0.74902 0.795026 1
1 0.74902 0.795026 1
1 0.74902 0.795026 1
1 0.74902 0.795026 1
1 0.74902 0.795026 1
1 0.74902 0.795026 1
1 0.74902 0.795026 1
1 0.74902 0.795026 1
1 0.74902 0.795026 1
1 0.74902 0.795026 1
1 0.74902 0.795026 1
1 0.74902 0.795026 1
1 0.74902 0.795026 1
1 0.74902 0.795026 1
1 0.74902 0.795026 1
1 0.74902 0.795026 1
1 0.74902 0.795026 1
1 0.74902 0.795026 1
1 0.74902 0.795026 1
1 0.74902 0.795026 1
1 0.74902 0.795026 1
1 0.74902 0.795026 1
1 0.74902 0.795026 1
1 0.74902 0.795026 1
1 0.74902 0.795026 1
1 0.74902 0.795026 1
1 0.74902 0.795026 1
1 0.74902 0.795026 1
1 0.74902 0.795026 1
1 0.74902 0.795026 1
1 0.74902 0.795026 1
1 0.74902 0.795026 1
1 0.74902 0.795026 1
1 0.74902 0.795026 1
1 0.74902 0.795026 1
1 0.74902 0.795026 1
1 0.74902 0.795026 1
1 0.74902 0.795026 1
1 0.74902 0.795026 1
1 0.74902 0.795026 1
1 0.74902 0.795026 1
1 0.74902 0.795026 1
1 0.74902 0.795026 1
1 0.74902 0.795026 1
1 0.74902 0.795026 1
1 0.74902 0.795026 1
1 0.74902 0.795026 1
1 0.74902 0.795026 1
1 0.74902 0.795026 1
1 0.74902 0.795026 1
1 0.74902 0.795026 1
1 0.74902 0.795026 1
1 0.74902 0.795026 1
1 0.74902 0.795026 1
1 0.74902 0.795026 1
1 0.74902 0.795026 1
1 0.74902 0.795026 1
1 0.74902 0.795026 1
1 0.74902 0.795026 1
1 0.74902 0.795026 1
1 0.74902 0.795026 1
1 0.74902 0.795026 1
1 0.74902 0.795026 1

