# vtk DataFile Version 3.0
Gocad TSurf to VTK
ASCII
DATASET POLYDATA
POINTS 527 float
21561300.000 4575940.000 -25.000
21561150.000 4575585.000 -35.000
21561425.000 4575735.000 -35.000
21561550.000 4575530.000 -45.000
21561950.000 4575952.500 70.000
21560000.000 4575440.000 -95.000
21560175.000 4575210.000 -87.500
21560150.000 4575662.500 -77.500
21561125.000 4576037.500 -25.000
21559950.000 4575577.500 -81.250
21559900.000 4575715.000 -67.500
21559650.000 4575457.500 -152.500
21559700.000 4575635.000 -115.000
21559600.000 4575280.000 -190.000
21559525.000 4575420.000 -155.000
21559775.000 4575042.500 -166.250
21559700.000 4575005.000 -200.000
21560075.000 4575162.500 -95.000
21559950.000 4574805.000 -142.500
21560150.000 4574885.000 -95.000
21560350.000 4574980.000 -80.000
21560125.000 4574567.500 -118.750
21559900.000 4574455.000 -220.000
21560225.000 4574607.500 -95.000
21560300.000 4574330.000 -95.000
21560525.000 4574750.000 -72.500
21560850.000 4574875.000 -55.000
21560700.000 4574520.000 -65.000
21560675.000 4574357.500 -65.000
21560375.000 4574215.000 -87.500
21560750.000 4574387.500 -47.500
21560800.000 4574255.000 -30.000
21560925.000 4574450.000 -53.750
21561800.000 4575120.000 -65.000
21561750.000 4574900.000 -53.750
21561675.000 4575325.000 -55.000
21561850.000 4575397.500 -20.000
21561000.000 4575230.000 -45.000
21561900.000 4575675.000 25.000
21562750.000 4575832.500 62.500
21562500.000 4575965.000 80.000
21562250.000 4576097.500 97.500
21562700.000 4576045.000 147.500
21562850.000 4575872.500 96.250
21562550.000 4576217.500 198.750
21562625.047 4576197.641 203.801
21562514.609 4576258.195 210.840
21562568.547 4576228.625 207.403
21562370.297 4576332.086 219.806
21562319.828 4576357.930 222.942
21562000.000 4576230.000 115.000
21562148.672 4576429.633 232.870
21561875.000 4576345.000 152.500
21562118.344 4576442.336 234.629
21561350.000 4576127.500 47.500
21561400.000 4576315.000 120.000
21561275.000 4576092.500 6.250
21561250.000 4576245.000 37.500
21560950.000 4576135.000 -25.000
21560300.000 4575885.000 -60.000
21561225.000 4576397.500 68.750
21560775.000 4576232.500 -25.000
21560450.000 4576107.500 -42.500
21561200.000 4576550.000 100.000
21561450.000 4576502.500 192.500
21560600.000 4576330.000 -25.000
21560650.000 4576495.000 6.250
21561100.000 4576660.000 100.000
21560400.000 4576397.500 -56.250
21560700.000 4576660.000 37.500
21559800.000 4575990.000 -40.000
21559800.000 4576142.500 -67.500
21559850.000 4575852.500 -53.750
21559750.000 4575812.500 -77.500
21559300.000 4575840.000 -50.000
21559375.000 4575700.000 -85.000
21559425.000 4576030.000 -75.000
21559150.000 4575932.500 -133.750
21559000.000 4576025.000 -217.500
21559100.000 4575730.000 -105.000
21559000.000 4575850.000 -175.000
21559225.000 4575617.500 -126.250
21559075.000 4575565.000 -185.000
21559350.000 4575505.000 -147.500
21559450.000 4575560.000 -120.000
21559475.000 4575392.500 -168.750
21559025.000 4575235.000 -345.000
21559050.000 4575400.000 -265.000
21559000.000 4575070.000 -425.000
21558950.000 4575205.000 -401.250
21559250.000 4574847.500 -376.250
21559075.000 4574757.500 -411.250
21559500.000 4574625.000 -327.500
21559150.000 4574445.000 -397.500
21559800.000 4574730.000 -210.000
21559750.000 4574402.500 -278.750
21560000.000 4574180.000 -230.000
21559300.000 4573820.000 -370.000
21559225.000 4574132.500 -383.750
21559875.000 4573997.500 -236.250
21559350.000 4573727.500 -341.250
21560100.000 4574082.500 -222.500
21560200.000 4573985.000 -215.000
21560325.000 4574195.000 -121.250
21560450.000 4574100.000 -80.000
21560650.000 4574195.000 -65.000
21560350.000 4574060.000 -147.500
21560525.000 4573985.000 -72.500
21560625.000 4574032.500 -65.000
21560375.000 4573925.000 -173.750
21560300.000 4573887.500 -207.500
21560600.000 4573870.000 -65.000
21560400.000 4573790.000 -200.000
21560625.000 4573665.000 -113.750
21560475.000 4573605.000 -215.000
21560750.000 4573700.000 -96.250
21560650.000 4573460.000 -162.500
21560900.000 4573990.000 5.000
21560975.000 4573790.000 -43.750
21560850.000 4574122.500 -12.500
21561375.000 4574310.000 -31.250
21561150.000 4574380.000 -42.500
21561700.000 4574680.000 -42.500
21562150.000 4574860.000 -37.500
21561975.000 4574990.000 -51.250
21562325.000 4574730.000 -23.750
21562300.000 4574915.000 -10.000
21561650.000 4574460.000 -31.250
21562500.000 4574600.000 -10.000
21562550.000 4574812.500 17.500
21561600.000 4574240.000 -20.000
21562375.000 4574307.500 -3.750
21561700.000 4574037.500 -11.250
21562600.000 4574390.000 37.500
21562400.000 4574070.000 30.000
21562800.000 4574710.000 45.000
21562850.000 4574957.500 45.000
21562925.000 4575002.500 80.000
21562900.000 4575205.000 45.000
21562950.000 4575452.500 45.000
21563050.000 4575295.000 115.000
21562050.000 4575017.500 -37.500
21563000.000 4575700.000 45.000
21563175.000 4575587.500 150.000
21563069.797 4575986.148 190.400
21563052.844 4575994.203 190.910
21563296.906 4575878.141 183.556
21563293.625 4575865.086 183.216
21562850.000 4576090.664 197.022
21562808.781 4576110.266 198.264
21562651.750 4576184.945 202.996
21562250.000 4574015.000 2.500
21562200.000 4573750.000 22.500
21561800.000 4573835.000 -2.500
21562125.000 4573722.500 8.750
21561600.000 4574002.500 -27.500
21561600.000 4573765.000 -35.000
21561250.000 4573640.000 -22.500
21561900.000 4573632.500 6.250
21561600.000 4573527.500 -42.500
21561425.000 4573465.000 -36.250
21562000.000 4573430.000 15.000
21561600.000 4573290.000 -50.000
21561375.000 4572852.500 -85.000
21561075.000 4572747.500 -133.750
21560750.000 4572275.000 -185.000
21561200.000 4573190.000 -190.000
21560775.000 4572672.500 -238.750
21561125.000 4573390.000 -141.250
21561050.000 4573360.000 -158.750
21561050.000 4573590.000 -92.500
21560700.000 4573050.000 -260.000
21560675.000 4573255.000 -211.250
21560400.000 4572567.500 -291.250
21560350.000 4572155.000 -287.500
21559700.000 4572760.000 -330.000
21559650.000 4572350.000 -343.750
21559875.000 4573017.500 -297.500
21560625.000 4573235.000 -245.000
21559650.000 4572932.500 -311.250
21559600.000 4573105.000 -292.500
21559500.000 4572885.000 -311.250
21559100.000 4572580.000 -370.000
21559050.000 4572750.000 -341.250
21559200.000 4572215.000 -373.750
21559600.000 4571940.000 -357.500
21558975.000 4572140.000 -433.750
21559150.000 4571800.000 -417.500
21558800.000 4572480.000 -450.000
21558825.000 4572112.500 -453.750
21558825.000 4572675.000 -401.250
21558725.000 4572637.500 -395.000
21558650.000 4572795.000 -340.000
21558650.000 4572605.000 -398.750
21558575.000 4572577.500 -442.500
21558500.000 4572730.000 -347.500
21557700.000 4572170.000 -755.000
21557750.000 4572345.000 -671.250
21558675.000 4572085.000 -471.250
21557850.000 4571852.500 -700.000
21558850.000 4571745.000 -457.500
21558550.000 4571690.000 -492.500
21558875.000 4571377.500 -461.250
21558425.000 4571295.000 -513.750
21558000.000 4571535.000 -645.000
21558900.000 4571010.000 -465.000
21559325.000 4571460.000 -401.250
21558300.000 4570900.000 -535.000
21558150.000 4571217.500 -590.000
21558425.000 4570690.000 -503.750
21558325.000 4570667.500 -515.000
21558875.000 4570772.500 -451.250
21558550.000 4570480.000 -472.500
21559325.000 4570855.000 -391.250
21559150.000 4570590.000 -397.500
21559500.000 4571120.000 -385.000
21559400.000 4571485.000 -381.250
21559550.000 4571530.000 -371.250
21559300.000 4571850.000 -377.500
21559800.000 4571602.500 -353.750
21560100.000 4572085.000 -322.500
21559925.000 4571637.500 -336.250
21560025.000 4571662.500 -301.250
21560550.000 4572205.000 -217.500
21560125.000 4571697.500 -285.000
21558850.000 4570535.000 -437.500
21558975.000 4570325.000 -403.750
21558825.000 4570297.500 -423.750
21558675.000 4570270.000 -441.250
21558800.000 4570060.000 -410.000
21558400.000 4569970.000 -455.000
21558375.000 4570202.500 -475.000
21558750.000 4570002.500 -410.000
21558450.000 4569935.000 -443.750
21558425.000 4569925.000 -457.500
21558700.000 4569945.000 -410.000
21558500.000 4569900.000 -432.500
21558450.000 4569880.000 -460.000
21558650.000 4569887.500 -410.000
21558550.000 4569865.000 -421.250
21558475.000 4569835.000 -462.500
21558600.000 4569830.000 -410.000
21558500.000 4569790.000 -465.000
21558325.000 4569812.500 -421.250
21558300.000 4569760.000 -410.000
21558350.000 4569865.000 -432.500
21558250.000 4569830.000 -480.000
21558225.000 4569865.000 -515.000
21558275.000 4569795.000 -445.000
21558275.000 4569795.000 -445.000
21558225.000 4569780.000 -465.000
21558250.000 4569830.000 -480.000
21558150.000 4569800.000 -520.000
21558225.000 4569865.000 -515.000
21558200.000 4569900.000 -550.000
21558075.000 4569820.000 -575.000
21558375.000 4569917.500 -443.750
21558225.000 4570150.000 -546.250
21558100.000 4570130.000 -567.500
21558000.000 4569840.000 -630.000
21558250.000 4570400.000 -542.500
21558000.000 4570360.000 -585.000
21558350.000 4570435.000 -495.000
21558275.000 4570650.000 -538.750
21557900.000 4570590.000 -602.500
21557900.000 4570330.000 -625.000
21557950.000 4570085.000 -627.500
21557850.000 4570575.000 -622.500
21557800.000 4570300.000 -700.000
21557800.000 4570820.000 -620.000
21557700.000 4570530.000 -735.000
21557775.000 4571157.500 -653.750
21557600.000 4571102.500 -668.750
21557750.000 4571495.000 -687.500
21557600.000 4570760.000 -770.000
21557450.000 4571057.500 -781.250
21557325.000 4570470.000 -888.750
21557100.000 4570680.000 -975.000
21557550.000 4570260.000 -802.500
21557350.000 4570220.000 -837.500
21557775.000 4570050.000 -716.250
21557675.000 4570030.000 -733.750
21557900.000 4570070.000 -665.000
21557025.000 4570410.000 -941.250
21556700.000 4570600.000 -1045.000
21556775.000 4570937.500 -987.500
21557075.000 4570997.500 -935.000
21556850.000 4571275.000 -930.000
21557050.000 4571315.000 -895.000
21557300.000 4571355.000 -792.500
21556925.000 4571612.500 -872.500
21557025.000 4571632.500 -855.000
21557150.000 4571652.500 -803.750
21557000.000 4571950.000 -815.000
21557200.000 4571667.500 -766.250
21557725.000 4571832.500 -721.250
[...]
POINT_DATA 527
COLOR_SCALARS GocadColor 4
0 0.5 1 1
0 0.5 1 1
0 0.5 1 1
0 0.5 1 1
0 0.5 1 1
0 0.5 1 1
0 0.5 1 1
0 0.5 1 1
0 0.5 1 1
0 0.5 1 1
0 0.5 1 1
0 0.5 1 1
0 0.5 1 1
0 0.5 1 1
0 0.5 1 1
0 0.5 1 1
0 0.5 1 1
0 0.5 1 1
0 0.5 1 1
0 0.5 1 1
0 0.5 1 1
0 0.5 1 1
0 0.5 1 1
0 0.5 1 1
0 0.5 1 1
0 0.5 1 1
0 0.5 1 1
0 0.5 1 1
0 0.5 1 1
0 0.5 1 1
0 0.5 1 1
0 0.5 1 1
0 0.5 1 1
0 0.5 1 1
0 0.5 1 1
0 0.5 1 1
0 0.5 1 1
0 0.5 1 1
0 0.5 1 1
0 0.5 1 1
0 0.5 1 1
0 0.5 1 1
0 0.5 1 1
0 0.5 1 1
0 0.5 1 1
0 0.5 1 1
0 0.5 1 1
0 0.5 1 1
0 0.5 1 1
0 0.5 1 1
0 0.5 1 1
0 0.5 1 1
0 0.5 1 1
0 0.5 1 1
0 0.5 1 1
0 0.5 1 1
0 0.5 1 1
0 0.5 1 1
0 0.5 1 1
0 0.5 1 1
0 0.5 1 1
0 0.5 1 1
0 0.5 1 1
0 0.5 1 1
0 0.5 1 1
0 0.5 1 1
0 0.5 1 1
0 0.5 1 1
0 0.5 1 1
0 0.5 1 1
0 0.5 1 1
0 0.5 1 1
0 0.5 1 1
0 0.5 1 1
0 0.5 1 1
0 0.5 1 1
0 0.5 1 1
0 0.5 1 1
0 0.5 1 1
0 0.5 1 1
0 0.5 1 1
0 0.5 1 1
0 0.5 1 1
0 0.5 1 1
0 0.5 1 1
0 0.5 1 1
0 0.5 1 1
0 0.5 1 1
0 0.5 1 1
0 0.5 1 1
0 0.5 1 1
0 0.5 1 1
0 0.5 1 1
0 0.5 1 1
0 0.5 1 1
0 0.5 1 1
0 0.5 1 1
0 0.5 1 1
0 0.5 1 1
0 0.5 1 1
0 0.5 1 1
0 0.5 1 1
0 0.5 1 1
0 0.5 1 1
0 0.5 1 1
0 0.5 1 1
0 0.5 1 1
0 0.5 1 1
0 0.5 1 1
0 0.5 1 1
0 0.5 1 1
0 0.5 1 1
0 0.5 1 1
0 0.5 1 1
0 0.5 1 1
0 0.5 1 1
0 0.5 1 1
0 0.5 1 1
0 0.5 1 1
0 0.5 1 1
0 0.5 1 1
0 0.5 1 1
0 0.5 1 1
0 0.5 1 1
0 0.5 1 1
0 0.5 1 1
0 0.5 1 1
0 0.5 1 1
0 0.5 1 1
0 0.5 1 1
0 0.5 1 1
0 0.5 1 1
0 0.5 1 1
0 0.5 1 1
0 0.5 1 1
0 0.5 1 1
0 0.5 1 1
0 0.5 1 1
0 0.5 1 1
0 0.5 1 1
0 0.5 1 1
0 0.5 1 1
0 0.5 1 1
0 0.5 1 1
0 0.5 1 1
0 0.5 1 1
0 0.5 1 1
0 0.5 1 1
0 0.5 1 1
0 0.5 1 1
0 0.5 1 1
0 0.5 1 1
0 0.5 1 1
0 0.5 1 1
0 0.5 1 1
0 0.5 1 1
0 0.5 1 1
0 0.5 1 1
0 0.5 1 1
0 0.5 1 1
0 0.5 1 1
0 0.5 1 1
0 0.5 1 1
0 0.5 1 1
0 0.5 1 1
0 0.5 1 1
0 0.5 1 1
0 0.5 1 1
0 0.5 1 1
0 0.5 1 1
0 0.5 1 1
0 0.5 1 1
0 0.5 1 1
0 0.5 1 1
0 0.5 1 1
0 0.5 1 1
0 0.5 1 1
0 0.5 1 1
0 0.5 1 1
0 0.5 1 1
0 0.5 1 1
0 0.5 1 1
0 0.5 1 1
0 0.5 1 1
0 0.5 1 1
0 0.5 1 1
0 0.5 1 1
0 0.5 1 1
0 0.5 1 1
0 0.5 1 1
0 0.5 1 1
0 0.5 1 1
0 0.5 1 1
0 0.5 1 1
0 0.5 1 1
0 0.5 1 1
0 0.5 1 1
0 0.5 1 1
0 0.5 1 1
0 0.5 1 1
0 0.5 1 1
0 0.5 1 1
0 0.5 1 1
0 0.5 1 1
0 0.5 1 1
0 0.5 1 1
0 0.5 1 1
0 0.5 1 1
0 0.5 1 1
0 0.5 1 1
0 0.5 1 1
0 0.5 1 1
0 0.5 1 1
0 0.5 1 1
0 0.5 1 1
0 0.5 1 1
0 0.5 1 1
0 0.5 1 1
0 0.5 1 1
0 0.5 1 1
0 0.5 1 1
0 0.5 1 1
0 0.5 1 1
0 0.5 1 1
0 0.5 1 1
0 0.5 1 1
0 0.5 1 1
0 0.5 1 1
0 0.5 1 1
0 0.5 1 1
0 0.5 1 1
0 0.5 1 1
0 0.5 1 1
0 0.5 1 1
0 0.5 1 1
0 0.5 1 1
0 0.5 1 1
0 0.5 1 1
0 0.5 1 1
0 0.5 1 1
0 0.5 1 1
0 0.5 1 1
0 0.5 1 1
0 0.5 1 1
0 0.5 1 1
0 0.5 1 1
0 0.5 1 1
0 0.5 1 1
0 0.5 1 1
0 0.5 1 1
0 0.5 1 1
0 0.5 1 1
0 0.5 1 1
0 0.5 1 1
0 0.5 1 1
0 0.5 1 1
0 0.5 1 1
0 0.5 1 1
0 0.5 1 1
0 0.5 1 1
0 0.5 1 1
0 0.5 1 1
0 0.5 1 1
0 0.5 1 1
0 0.5 1 1
0 0.5 1 1
0 0.5 1 1
0 0.5 1 1
0 0.5 1 1
0 0.5 1 1
0 0.5 1 1
0 0.5 1 1
0 0.5 1 1
0 0.5 1 1
0 0.5 1 1
0 0.5 1 1
0 0.5 1 1
0 0.5 1 1
0 0.5 1 1
0 0.5 1 1
0 0.5 1 1
0 0.5 1 1
0 0.5 1 1
0 0.5 1 1
0 0.5 1 1
0 0.5 1 1
0 0.5 1 1
0 0.5 1 1
0 0.5 1 1
0 0.5 1 1
0 0.5 1 1
0 0.5 1 1
0 0.5 1 1
0 0.5 1 1
0 0.5 1 1
0 0.5 1 1
0 0.5 1 1
0 0.5 1 1
0 0.5 1 1
0 0.5 1 1
0 0.5 1 1
0 0.5 1 1
0 0.5 1 1
0 0.5 1 1
0 0.5 1 1
0 0.5 1 1
0 0.5 1 1
0 0.5 1 1
0 0.5 1 1
0 0.5 1 1
0 0.5 1 1
0 0.5 1 1
0 0.5 1 1
0 0.5 1 1
0 0.5 1 1
0 0.5 1 1
0 0.5 1 1
0 0.5 1 1
0 0.5 1 1
0 0.5 1 1
0 0.5 1 1
0 0.5 1 1
0 0.5 1 1
0 0.5 1 1
0 0.5 1 1
0 0.5 1 1
0 0.5 1 1
0 0.5 1 1
0 0.5 1 1
0 0.5 1 1
0 0.5 1 1
0 0.5 1 1
0 0.5 1 1
0 0.5 1 1
0 0.5 1 1
0 0.5 1 1
0 0.5 1 1
0 0.5 1 1
0 0.5 1 1
0 0.5 1 1
0 0.5 1 1
0 0.5 1 1
0 0.5 1 1
0 0.5 1 1
0 0.5 1 1
0 0.5 1 1
0 0.5 1 1
0 0.5 1 1
0 0.5 1 1
0 0.5 1 1
0 0.5 1 1
0 0.5 1 1
0 0.5 1 1
0 0.5 1 1
0 0.5 1 1
0 0.5 1 1
0 0.5 1 1
0 0.5 1 1
0 0.5 1 1
0 0.5 1 1
0 0.5 1 1
0 0.5 1 1
0 0.5 1 1
0 0.5 1 1
0 0.5 1 1
0 0.5 1 1
0 0.5 1 1
0 0.5 1 1
0 0.5 1 1
0 0.5 1 1
0 0.5 1 1
0 0.5 1 1
0 0.5 1 1
0 0.5 1 1
0 0.5 1 1
0 0.5 1 1
0 0.5 1 1
0 0.5 1 1
0 0.5 1 1
0 0.5 1 1
0 0.5 1 1
0 0.5 1 1
0 0.5 1 1
0 0.5 1 1
0 0.5 1 1
0 0.5 1 1
0 0.5 1 1
0 0.5 1 1
0 0.5 1 1
0 0.5 1 1
0 0.5 1 1
0 0.5 1 1
0 0.5 1 1
0 0.5 1 1
0 0.5 1 1
0 0.5 1 1
0 0.5 1 1
0 0.5 1 1
0 0.5 1 1
0 0.5 1 1
0 0.5 1 1
0 0.5 1 1
0 0.5 1 1
0 0.5 1 1
0 0.5 1 1
0 0.5 1 1
0 0.5 1 1
0 0.5 1 1
0 0.5 1 1
0 0.5 1 1
0 0.5 1 1
0 0.5 1 1
0 0.5 1 1
0 0.5 1 1
0 0.5 1 1
0 0.5 1 1
0 0.5 1 1
0 0.5 1 1
0 0.5 1 1
0 0.5 1 1
0 0.5 1 1
0 0.5 1 1
0 0.5 1 1
0 0.5 1 1
0 0.5 1 1
0 0.5 1 1
0 0.5 1 1
0 0.5 1 1
0 0.5 1 1
0 0.5 1 1
0 0.5 1 1
0 0.5 1 1
0 0.5 1 1
0 0.5 1 1
0 0.5 1 1
0 0.5 1 1
0 0.5 1 1
0 0.5 1 1
0 0.5 1 1
0 0.5 1 1
0 0.5 1 1
0 0.5 1 1
0 0.5 1 1
0 0.5 1 1
0 0.5 1 1
0 0.5 1 1
0 0.5 1 1
0 0.5 1 1
0 0.5 1 1
0 0.5 1 1
0 0.5 1 1
0 0.5 1 1
0 0.5 1 1
0 0.5 1 1
0 0.5 1 1
0 0.5 1 1
0 0.5 1 1
0 0.5 1 1
0 0.5 1 1
0 0.5 1 1
0 0.5 1 1
0 0.5 1 1
0 0.5 1 1
0 0.5 1 1
0 0.5 1 1
0 0.5 1 1
0 0.5 1 1
0 0.5 1 1
0 0.5 1 1
0 0.5 1 1
0 0.5 1 1
0 0.5 1 1
0 0.5 1 1
0 0.5 1 1
0 0.5 1 1
0 0.5 1 1
0 0.5 1 1
0 0.5 1 1
0 0.5 1 1
0 0.5 1 1
0 0.5 1 1
0 0.5 1 1
0 0.5 1 1
0 0.5 1 1
0 0.5 1 1
0 0.5 1 1
0 0.5 1 1
0 0.5 1 1
0 0.5 1 1
0 0.5 1 1
0 0.5 1 1
0 0.5 1 1
0 0.5 1 1
0 0.5 1 1
0 0.5 1 1
0 0.5 1 1
0 0.5 1 1
0 0.5 1 1
0 0.5 1 1
0 0.5 1 1
0 0.5 1 1
0 0.5 1 1
0 0.5 1 1
0 0.5 1 1
0 0.5 1 1
0 0.5 1 1
0 0.5 1 1
0 0.5 1 1
0 0.5 1 1
0 0.5 1 1
0 0.5 1 1
0 0.5 1 1
0 0.5 1 1
0 0.5 1 1
0 0.5 1 1
0 0.5 1 1
0 0.5 1 1
0 0.5 1 1
0 0.5 1 1
0 0.5 1 1
0 0.5 1 1
0 0.5 1 1
0 0.5 1 1
0 0.5 1 1
0 0.5 1 1
0 0.5 1 1
0 0.5 1 1

