# vtk DataFile Version 3.0
Gocad TSurf to VTK
ASCII
DATASET POLYDATA
POINTS 666 float
21560400.000 4569570.000 195.000
21559100.000 4569050.000 -180.000
21559800.000 4569005.000 35.000
21558975.000 4568800.000 -241.250
21560425.000 4569417.500 208.750
21560475.000 4569112.500 236.250
21560425.000 4569417.500 208.750
21560450.000 4569265.000 222.500
21560500.000 4568960.000 250.000
21559200.000 4568410.000 -125.000
21558150.000 4568120.000 -456.250
21558400.000 4568390.000 -397.500
21557900.000 4567850.000 -515.000
21558650.000 4568660.000 -338.750
21558900.000 4568930.000 -280.000
21557100.000 4558180.000 292.500
21557050.000 4558040.000 298.750
21556950.000 4558130.000 272.500
21556825.000 4557965.000 268.750
21557150.000 4558320.000 286.250
21557050.000 4558040.000 298.750
21557000.000 4557900.000 305.000
21556700.000 4557800.000 265.000
21556475.000 4557855.000 247.500
21556500.000 4557720.000 250.000
21556325.000 4557795.000 236.250
21556100.000 4557570.000 265.000
21556150.000 4557870.000 222.500
21556025.000 4557682.500 247.500
21555975.000 4557945.000 208.750
21555950.000 4557795.000 230.000
21557200.000 4558460.000 280.000
21555800.000 4558020.000 195.000
21557150.000 4558320.000 286.250
21555875.000 4557907.500 212.500
21556900.000 4558442.500 248.750
21555850.000 4558112.500 185.000
21557400.000 4558602.500 255.000
21557600.000 4558745.000 230.000
21557625.000 4558670.000 262.500
21558050.000 4558880.000 245.000
21557775.000 4559040.000 173.750
21556300.000 4558407.500 186.250
21558475.000 4559090.000 227.500
21558350.000 4559310.000 167.500
21557100.000 4559070.000 155.000
21558900.000 4559300.000 210.000
21558850.000 4559375.000 196.250
21558700.000 4559600.000 155.000
21559000.000 4559417.500 213.750
21559100.000 4559535.000 217.500
21559200.000 4559652.500 221.250
21559293.953 4559762.895 224.773
21559295.672 4559768.773 224.494
21559312.656 4559817.254 222.110
21559403.406 4560068.934 210.100
21559436.922 4560161.902 205.663
21558100.000 4559680.000 102.500
21559432.406 4560184.410 204.810
21557400.000 4559355.000 112.500
21557550.000 4559497.500 91.250
21557100.000 4559165.000 98.750
21557075.000 4559352.500 -13.750
21557025.000 4559157.500 98.750
21556750.000 4558892.500 155.000
21556400.000 4559460.000 -155.000
21556275.000 4559102.500 -115.000
21557075.000 4559552.500 -53.750
21556650.000 4559645.000 -92.500
21557300.000 4559735.000 -2.500
21557025.000 4559757.500 -21.250
21557650.000 4559735.000 68.750
21557800.000 4559787.500 80.000
21557400.000 4559877.500 31.250
21557550.000 4559925.000 66.250
21557000.000 4559860.000 -5.000
21556800.000 4559682.500 -51.250
21557500.000 4560020.000 65.000
21557150.000 4560022.500 3.750
21557700.000 4559865.000 75.000
21557900.000 4560150.000 135.000
21557900.000 4559930.000 110.000
21557900.000 4559820.000 97.500
21557975.000 4559845.000 108.750
21557900.000 4559710.000 85.000
21559175.000 4560220.000 202.500
21558525.000 4560240.000 187.500
21559332.484 4560215.152 206.134
21559308.719 4560261.145 205.072
21559396.031 4560196.605 204.940
21559431.531 4560188.605 204.651
21559292.422 4560292.707 204.342
21559295.531 4560297.879 204.354
21559358.328 4560402.391 204.594
21559362.313 4560409.016 204.609
21559379.031 4560502.781 203.924
21559397.609 4560606.945 203.162
21559399.797 4560619.168 203.073
21558200.000 4560250.000 180.000
21559435.781 4560655.840 200.329
21557800.000 4560632.500 40.000
21557750.000 4560330.000 82.500
21558400.000 4560750.000 125.000
21558400.000 4561000.000 70.000
21559225.000 4560675.000 185.000
21559500.000 4561090.000 180.000
21559500.000 4560806.797 196.091
21559500.000 4560980.000 186.250
21559225.000 4561067.500 152.500
21558675.000 4561022.500 97.500
21559500.000 4561155.000 183.750
21559500.000 4561220.000 187.500
21559500.000 4561155.000 183.750
21559500.000 4561285.000 191.250
21559500.000 4561350.000 195.000
21559250.000 4561345.000 167.500
21558750.000 4561335.000 112.500
21559575.000 4561590.000 183.750
21559600.000 4561670.000 180.000
21558500.000 4561330.000 85.000
21559375.000 4561727.500 173.750
21557900.000 4560915.000 21.250
21556900.000 4560745.000 -76.250
21556475.000 4560457.500 -207.500
21556400.000 4560660.000 -125.000
21556725.000 4560882.500 -101.250
21556425.000 4560592.500 -152.500
21556050.000 4560472.500 -321.250
21556350.000 4560417.500 -263.750
21556500.000 4560390.000 -235.000
21555500.000 4560090.000 -350.000
21556775.000 4560420.000 -168.750
21556600.000 4560180.000 -95.000
21556200.000 4560175.000 -265.000
21555900.000 4559960.000 -295.000
21555600.000 4560057.500 -336.250
21556450.000 4559905.000 -112.500
21556575.000 4560062.500 -96.250
21556000.000 4559877.500 -253.750
21556100.000 4559795.000 -212.500
21555900.000 4559847.500 -267.500
21556000.000 4559775.000 -217.500
21555600.000 4559755.000 -336.250
21555750.000 4559690.000 -275.000
21555550.000 4559980.000 -357.500
21555450.000 4559945.000 -357.500
21555525.000 4560035.000 -353.750
21555475.000 4560017.500 -353.750
21555300.000 4560020.000 -335.000
21555250.000 4560080.000 -370.000
21555325.000 4559965.000 -342.500
21555325.000 4559972.500 -342.500
21555300.000 4560030.000 -335.000
21555450.000 4559695.000 -336.250
21555050.000 4559815.000 -222.500
21555000.000 4559540.000 -136.250
21555325.000 4559972.500 -342.500
21554700.000 4559820.000 -125.000
21555300.000 4560030.000 -335.000
21554725.000 4559767.500 -121.250
21555175.000 4560047.500 -313.750
21554725.000 4559897.500 -156.250
21555150.000 4560177.500 -440.000
21554925.000 4560102.500 -271.250
21555425.000 4560262.500 -402.500
21555475.000 4560147.500 -367.500
21555100.000 4560230.000 -475.000
21555400.000 4560320.000 -420.000
21554800.000 4560130.000 -250.000
21554850.000 4560370.000 -327.500
21554550.000 4559845.000 -62.500
21554075.000 4559840.000 128.750
21554050.000 4559760.000 132.500
21554200.000 4560160.000 -20.000
21553975.000 4559987.500 132.500
21554550.000 4560265.000 -207.500
21554250.000 4560280.000 -92.500
21554900.000 4560610.000 -405.000
21554350.000 4560467.500 -225.000
21554100.000 4560382.500 -75.000
21554600.000 4560655.000 -405.000
21554850.000 4560995.000 -466.250
21554500.000 4560670.000 -405.000
21553700.000 4560347.500 105.000
21554650.000 4560855.000 -425.000
21554600.000 4561085.000 -437.500
21554350.000 4560995.000 -375.000
21554300.000 4560850.000 -305.000
21554550.000 4561300.000 -445.000
21554325.000 4561272.500 -411.250
21554950.000 4561205.000 -390.000
21554800.000 4561442.500 -428.750
21555325.000 4561030.000 -413.750
21555250.000 4561367.500 -308.750
21555225.000 4560762.500 -466.250
21555400.000 4560660.000 -445.000
21555750.000 4561005.000 -455.000
21555350.000 4560530.000 -432.500
21555150.000 4560357.500 -467.500
21555700.000 4560540.000 -438.750
21555650.000 4560337.500 -421.250
21555700.000 4560780.000 -426.250
21555800.000 4560700.000 -385.000
21555975.000 4560867.500 -380.000
21556150.000 4561175.000 -433.750
21555900.000 4560500.000 -350.000
21556300.000 4560742.500 -191.250
21556325.000 4560967.500 -207.500
21556375.000 4560762.500 -152.500
21556425.000 4560780.000 -128.750
21556450.000 4561295.000 -246.250
21557475.000 4561527.500 -53.750
21556600.000 4561660.000 -235.000
21558300.000 4561385.000 56.250
21557875.000 4561907.500 16.250
21558700.000 4561900.000 155.000
21559800.000 4562240.000 170.000
21559500.000 4562207.500 155.000
21559750.000 4562097.500 172.500
21559650.000 4561812.500 177.500
21559700.000 4561955.000 175.000
21559650.000 4561812.500 177.500
21558600.000 4562110.000 110.000
21559800.000 4562375.000 182.500
21559800.000 4562307.500 176.250
21559800.000 4562441.672 188.673
21559799.469 4562442.078 188.689
21559800.000 4562375.000 182.500
21559800.000 4562441.672 188.673
21559761.234 4562470.910 189.831
21559737.172 4562489.059 190.550
21559742.281 4562504.754 190.540
21559525.000 4562485.000 173.750
21559823.453 4562582.695 189.137
21558975.000 4562435.000 131.250
21558425.000 4562242.500 78.750
21559875.000 4562742.500 176.250
21559850.000 4562665.000 182.500
21559900.000 4562820.000 170.000
21559875.000 4562742.500 176.250
21559600.000 4562782.500 158.750
21558700.000 4562540.000 117.500
21559900.000 4563022.500 170.000
21559000.000 4562707.500 136.250
21559900.000 4563090.000 170.000
21558700.000 4562670.000 125.000
21559600.000 4563062.500 152.500
21558350.000 4562345.000 58.750
21557300.000 4562150.000 -95.000
21556775.000 4561782.500 -200.000
21558000.000 4562550.000 2.500
21556100.000 4562000.000 -305.000
21558700.000 4562810.000 112.500
21559000.000 4563127.500 117.500
21559000.000 4562987.500 117.500
21559900.000 4563240.000 170.000
21559900.000 4563315.000 170.000
21559900.000 4563165.000 170.000
21559900.000 4563390.000 170.000
21559900.000 4563457.500 170.000
21559300.000 4563305.000 135.000
21559900.000 4563592.500 170.000
21559900.000 4563660.000 170.000
21557750.000 4562980.000 -77.500
21559500.000 4563575.000 127.500
21558700.000 4563405.000 42.500
21559925.000 4563742.500 158.750
21559950.000 4563825.000 147.500
21559925.000 4563742.500 158.750
21559975.000 4563907.500 136.250
21559975.000 4563907.500 136.250
21560000.000 4563990.000 125.000
21558300.000 4563320.000 0.000
21559725.000 4563957.500 97.500
21556700.000 4562770.000 -241.250
21556650.000 4562320.000 -230.000
21557150.000 4563025.000 -237.500
21556700.000 4562850.000 -327.500
21557700.000 4563750.000 -350.000
21556950.000 4563195.000 -462.500
21559000.000 4564060.000 -7.500
21559100.000 4564260.000 -30.000
21560200.000 4564400.000 125.000
21559925.000 4564365.000 86.250
21560150.000 4564297.500 125.000
21560100.000 4564195.000 125.000
21560050.000 4564092.500 125.000
21560050.000 4564092.500 125.000
21560250.000 4564497.500 136.250
21560350.000 4564692.500 158.750
21560250.000 4564497.500 136.250
21560300.000 4564595.000 147.500
21560360.031 4564712.051 161.006
21560345.078 4564767.613 161.551
21560355.375 4564794.461 162.494
21560125.000 4564817.500 123.750
21559575.000 4564872.500 31.250
21560360.703 4564907.852 164.997
[...]
POINT_DATA 666
COLOR_SCALARS GocadColor 4
1 0.843137 0 1
1 0.843137 0 1
1 0.843137 0 1
1 0.843137 0 1
1 0.843137 0 1
1 0.843137 0 1
1 0.843137 0 1
1 0.843137 0 1
1 0.843137 0 1
1 0.843137 0 1
1 0.843137 0 1
1 0.843137 0 1
1 0.843137 0 1
1 0.843137 0 1
1 0.843137 0 1
1 0.843137 0 1
1 0.843137 0 1
1 0.843137 0 1
1 0.843137 0 1
1 0.843137 0 1
1 0.843137 0 1
1 0.843137 0 1
1 0.843137 0 1
1 0.843137 0 1
1 0.843137 0 1
1 0.843137 0 1
1 0.843137 0 1
1 0.843137 0 1
1 0.843137 0 1
1 0.843137 0 1
1 0.843137 0 1
1 0.843137 0 1
1 0.843137 0 1
1 0.843137 0 1
1 0.843137 0 1
1 0.843137 0 1
1 0.843137 0 1
1 0.843137 0 1
1 0.843137 0 1
1 0.843137 0 1
1 0.843137 0 1
1 0.843137 0 1
1 0.843137 0 1
1 0.843137 0 1
1 0.843137 0 1
1 0.843137 0 1
1 0.843137 0 1
1 0.843137 0 1
1 0.843137 0 1
1 0.843137 0 1
1 0.843137 0 1
1 0.843137 0 1
1 0.843137 0 1
1 0.843137 0 1
1 0.843137 0 1
1 0.843137 0 1
1 0.843137 0 1
1 0.843137 0 1
1 0.843137 0 1
1 0.843137 0 1
1 0.843137 0 1
1 0.843137 0 1
1 0.843137 0 1
1 0.843137 0 1
1 0.843137 0 1
1 0.843137 0 1
1 0.843137 0 1
1 0.843137 0 1
1 0.843137 0 1
1 0.843137 0 1
1 0.843137 0 1
1 0.843137 0 1
1 0.843137 0 1
1 0.843137 0 1
1 0.843137 0 1
1 0.843137 0 1
1 0.843137 0 1
1 0.843137 0 1
1 0.843137 0 1
1 0.843137 0 1
1 0.843137 0 1
1 0.843137 0 1
1 0.843137 0 1
1 0.843137 0 1
1 0.843137 0 1
1 0.843137 0 1
1 0.843137 0 1
1 0.843137 0 1
1 0.843137 0 1
1 0.843137 0 1
1 0.843137 0 1
1 0.843137 0 1
1 0.843137 0 1
1 0.843137 0 1
1 0.843137 0 1
1 0.843137 0 1
1 0.843137 0 1
1 0.843137 0 1
1 0.843137 0 1
1 0.843137 0 1
1 0.843137 0 1
1 0.843137 0 1
1 0.843137 0 1
1 0.843137 0 1
1 0.843137 0 1
1 0.843137 0 1
1 0.843137 0 1
1 0.843137 0 1
1 0.843137 0 1
1 0.843137 0 1
1 0.843137 0 1
1 0.843137 0 1
1 0.843137 0 1
1 0.843137 0 1
1 0.843137 0 1
1 0.843137 0 1
1 0.843137 0 1
1 0.843137 0 1
1 0.843137 0 1
1 0.843137 0 1
1 0.843137 0 1
1 0.843137 0 1
1 0.843137 0 1
1 0.843137 0 1
1 0.843137 0 1
1 0.843137 0 1
1 0.843137 0 1
1 0.843137 0 1
1 0.843137 0 1
1 0.843137 0 1
1 0.843137 0 1
1 0.843137 0 1
1 0.843137 0 1
1 0.843137 0 1
1 0.843137 0 1
1 0.843137 0 1
1 0.843137 0 1
1 0.843137 0 1
1 0.843137 0 1
1 0.843137 0 1
1 0.843137 0 1
1 0.843137 0 1
1 0.843137 0 1
1 0.843137 0 1
1 0.843137 0 1
1 0.843137 0 1
1 0.843137 0 1
1 0.843137 0 1
1 0.843137 0 1
1 0.843137 0 1
1 0.843137 0 1
1 0.843137 0 1
1 0.843137 0 1
1 0.843137 0 1
1 0.843137 0 1
1 0.843137 0 1
1 0.843137 0 1
1 0.843137 0 1
1 0.843137 0 1
1 0.843137 0 1
1 0.843137 0 1
1 0.843137 0 1
1 0.843137 0 1
1 0.843137 0 1
1 0.843137 0 1
1 0.843137 0 1
1 0.843137 0 1
1 0.843137 0 1
1 0.843137 0 1
1 0.843137 0 1
1 0.843137 0 1
1 0.843137 0 1
1 0.843137 0 1
1 0.843137 0 1
1 0.843137 0 1
1 0.843137 0 1
1 0.843137 0 1
1 0.843137 0 1
1 0.843137 0 1
1 0.843137 0 1
1 0.843137 0 1
1 0.843137 0 1
1 0.843137 0 1
1 0.843137 0 1
1 0.843137 0 1
1 0.843137 0 1
1 0.843137 0 1
1 0.843137 0 1
1 0.843137 0 1
1 0.843137 0 1
1 0.843137 0 1
1 0.843137 0 1
1 0.843137 0 1
1 0.843137 0 1
1 0.843137 0 1
1 0.843137 0 1
1 0.843137 0 1
1 0.843137 0 1
1 0.843137 0 1
1 0.843137 0 1
1 0.843137 0 1
1 0.843137 0 1
1 0.843137 0 1
1 0.843137 0 1
1 0.843137 0 1
1 0.843137 0 1
1 0.843137 0 1
1 0.843137 0 1
1 0.843137 0 1
1 0.843137 0 1
1 0.843137 0 1
1 0.843137 0 1
1 0.843137 0 1
1 0.843137 0 1
1 0.843137 0 1
1 0.843137 0 1
1 0.843137 0 1
1 0.843137 0 1
1 0.843137 0 1
1 0.843137 0 1
1 0.843137 0 1
1 0.843137 0 1
1 0.843137 0 1
1 0.843137 0 1
1 0.843137 0 1
1 0.843137 0 1
1 0.843137 0 1
1 0.843137 0 1
1 0.843137 0 1
1 0.843137 0 1
1 0.843137 0 1
1 0.843137 0 1
1 0.843137 0 1
1 0.843137 0 1
1 0.843137 0 1
1 0.843137 0 1
1 0.843137 0 1
1 0.843137 0 1
1 0.843137 0 1
1 0.843137 0 1
1 0.843137 0 1
1 0.843137 0 1
1 0.843137 0 1
1 0.843137 0 1
1 0.843137 0 1
1 0.843137 0 1
1 0.843137 0 1
1 0.843137 0 1
1 0.843137 0 1
1 0.843137 0 1
1 0.843137 0 1
1 0.843137 0 1
1 0.843137 0 1
1 0.843137 0 1
1 0.843137 0 1
1 0.843137 0 1
1 0.843137 0 1
1 0.843137 0 1
1 0.843137 0 1
1 0.843137 0 1
1 0.843137 0 1
1 0.843137 0 1
1 0.843137 0 1
1 0.843137 0 1
1 0.843137 0 1
1 0.843137 0 1
1 0.843137 0 1
1 0.843137 0 1
1 0.843137 0 1
1 0.843137 0 1
1 0.843137 0 1
1 0.843137 0 1
1 0.843137 0 1
1 0.843137 0 1
1 0.843137 0 1
1 0.843137 0 1
1 0.843137 0 1
1 0.843137 0 1
1 0.843137 0 1
1 0.843137 0 1
1 0.843137 0 1
1 0.843137 0 1
1 0.843137 0 1
1 0.843137 0 1
1 0.843137 0 1
1 0.843137 0 1
1 0.843137 0 1
1 0.843137 0 1
1 0.843137 0 1
1 0.843137 0 1
1 0.843137 0 1
1 0.843137 0 1
1 0.843137 0 1
1 0.843137 0 1
1 0.843137 0 1
1 0.843137 0 1
1 0.843137 0 1
1 0.843137 0 1
1 0.843137 0 1
1 0.843137 0 1
1 0.843137 0 1
1 0.843137 0 1
1 0.843137 0 1
1 0.843137 0 1
1 0.843137 0 1
1 0.843137 0 1
1 0.843137 0 1
1 0.843137 0 1
1 0.843137 0 1
1 0.843137 0 1
1 0.843137 0 1
1 0.843137 0 1
1 0.843137 0 1
1 0.843137 0 1
1 0.843137 0 1
1 0.843137 0 1
1 0.843137 0 1
1 0.843137 0 1
1 0.843137 0 1
1 0.843137 0 1
1 0.843137 0 1
1 0.843137 0 1
1 0.843137 0 1
1 0.843137 0 1
1 0.843137 0 1
1 0.843137 0 1
1 0.843137 0 1
1 0.843137 0 1
1 0.843137 0 1
1 0.843137 0 1
1 0.843137 0 1
1 0.843137 0 1
1 0.843137 0 1
1 0.843137 0 1
1 0.843137 0 1
1 0.843137 0 1
1 0.843137 0 1
1 0.843137 0 1
1 0.843137 0 1
1 0.843137 0 1
1 0.843137 0 1
1 0.843137 0 1
1 0.843137 0 1
1 0.843137 0 1
1 0.843137 0 1
1 0.843137 0 1
1 0.843137 0 1
1 0.843137 0 1
1 0.843137 0 1
1 0.843137 0 1
1 0.843137 0 1
1 0.843137 0 1
1 0.843137 0 1
1 0.843137 0 1
1 0.843137 0 1
1 0.843137 0 1
1 0.843137 0 1
1 0.843137 0 1
1 0.843137 0 1
1 0.843137 0 1
1 0.843137 0 1
1 0.843137 0 1
1 0.843137 0 1
1 0.843137 0 1
1 0.843137 0 1
1 0.843137 0 1
1 0.843137 0 1
1 0.843137 0 1
1 0.843137 0 1
1 0.843137 0 1
1 0.843137 0 1
1 0.843137 0 1
1 0.843137 0 1
1 0.843137 0 1
1 0.843137 0 1
1 0.843137 0 1
1 0.843137 0 1
1 0.843137 0 1
1 0.843137 0 1
1 0.843137 0 1
1 0.843137 0 1
1 0.843137 0 1
1 0.843137 0 1
1 0.843137 0 1
1 0.843137 0 1
1 0.843137 0 1
1 0.843137 0 1
1 0.843137 0 1
1 0.843137 0 1
1 0.843137 0 1
1 0.843137 0 1
1 0.843137 0 1
1 0.843137 0 1
1 0.843137 0 1
1 0.843137 0 1
1 0.843137 0 1
1 0.843137 0 1
1 0.843137 0 1
1 0.843137 0 1
1 0.843137 0 1
1 0.843137 0 1
1 0.843137 0 1
1 0.843137 0 1
1 0.843137 0 1
1 0.843137 0 1
1 0.843137 0 1
1 0.843137 0 1
1 0.843137 0 1
1 0.843137 0 1
1 0.843137 0 1
1 0.843137 0 1
1 0.843137 0 1
1 0.843137 0 1
1 0.843137 0 1
1 0.843137 0 1
1 0.843137 0 1
1 0.843137 0 1
1 0.843137 0 1
1 0.843137 0 1
1 0.843137 0 1
1 0.843137 0 1
1 0.843137 0 1
1 0.843137 0 1
1 0.843137 0 1
1 0.843137 0 1
1 0.843137 0 1
1 0.843137 0 1
1 0.843137 0 1
1 0.843137 0 1
1 0.843137 0 1
1 0.843137 0 1
1 0.843137 0 1
1 0.843137 0 1
1 0.843137 0 1
1 0.843137 0 1
1 0.843137 0 1
1 0.843137 0 1
1 0.843137 0 1
1 0.843137 0 1
1 0.843137 0 1
1 0.843137 0 1
1 0.843137 0 1
1 0.843137 0 1
1 0.843137 0 1
1 0.843137 0 1
1 0.843137 0 1
1 0.843137 0 1
1 0.843137 0 1
1 0.843137 0 1
1 0.843137 0 1
1 0.843137 0 1
1 0.843137 0 1
1 0.843137 0 1
1 0.843137 0 1
1 0.843137 0 1
1 0.843137 0 1
1 0.843137 0 1
1 0.843137 0 1
1 0.843137 0 1
1 0.843137 0 1
1 0.843137 0 1
1 0.843137 0 1
1 0.843137 0 1
1 0.843137 0 1
1 0.843137 0 1
1 0.843137 0 1
1 0.843137 0 1
1 0.843137 0 1
1 0.843137 0 1
1 0.843137 0 1
1 0.843137 0 1
1 0.843137 0 1
1 0.843137 0 1
1 0.843137 0 1
1 0.843137 0 1
1 0.843137 0 1
1 0.843137 0 1
1 0.843137 0 1
1 0.843137 0 1
1 0.843137 0 1
1 0.843137 0 1
1 0.843137 0 1
1 0.843137 0 1
1 0.843137 0 1
1 0.843137 0 1
1 0.843137 0 1
1 0.843137 0 1
1 0.843137 0 1
1 0.843137 0 1
1 0.843137 0 1
1 0.843137 0 1
1 0.843137 0 1
1 0.843137 0 1
1 0.843137 0 1
1 0.843137 0 1
1 0.843137 0 1
1 0.843137 0 1
1 0.843137 0 1
1 0.843137 0 1
1 0.843137 0 1
1 0.843137 0 1
1 0.843137 0 1
1 0.843137 0 1
1 0.843137 0 1
1 0.843137 0 1
1 0.843137 0 1
1 0.843137 0 1
1 0.843137 0 1
1 0.843137 0 1
1 0.843137 0 1
1 0.843137 0 1
1 0.843137 0 1
1 0.843137 0 1
1 0.843137 0 1
1 0.843137 0 1
1 0.843137 0 1
1 0.843137 0 1
1 0.843137 0 1
1 0.843137 0 1
1 0.843137 0 1
1 0.843137 0 1
1 0.843137 0 1
1 0.843137 0 1
1 0.843137 0 1
1 0.843137 0 1
1 0.843137 0 1
1 0.843137 0 1
1 0.843137 0 1
1 0.843137 0 1
1 0.843137 0 1
1 0.843137 0 1
1 0.843137 0 1
1 0.843137 0 1
1 0.843137 0 1
1 0.843137 0 1
1 0.843137 0 1
1 0.843137 0 1
1 0.843137 0 1
1 0.843137 0 1
1 0.843137 0 1
1 0.843137 0 1
1 0.843137 0 1
1 0.843137 0 1
1 0.843137 0 1
1 0.843137 0 1
1 0.843137 0 1
1 0.843137 0 1
1 0.843137 0 1
1 0.843137 0 1
1 0.843137 0 1
1 0.843137 0 1
1 0.843137 0 1
1 0.843137 0 1
1 0.843137 0 1
1 0.843137 0 1
1 0.843137 0 1
1 0.843137 0 1
1 0.843137 0 1
1 0.843137 0 1
1 0.843137 0 1
1 0.843137 0 1
1 0.843137 0 1
1 0.843137 0 1
1 0.843137 0 1
1 0.843137 0 1
1 0.843137 0 1
1 0.843137 0 1
1 0.843137 0 1
1 0.843137 0 1
1 0.843137 0 1
1 0.843137 0 1
1 0.843137 0 1
1 0.843137 0 1
1 0.843137 0 1
1 0.843137 0 1
1 0.843137 0 1
1 0.843137 0 1
1 0.843137 0 1
1 0.843137 0 1
1 0.843137 0 1
1 0.843137 0 1
1 0.843137 0 1
1 0.843137 0 1
1 0.843137 0 1
1 0.843137 0 1
1 0.843137 0 1
1 0.843137 0 1
1 0.843137 0 1
1 0.843137 0 1
1 0.843137 0 1
1 0.843137 0 1
1 0.843137 0 1
1 0.843137 0 1
1 0.843137 0 1
1 0.843137 0 1
1 0.843137 0 1
1 0.843137 0 1
1 0.843137 0 1
1 0.843137 0 1
1 0.843137 0 1
1 0.843137 0 1
1 0.843137 0 1
1 0.843137 0 1
1 0.843137 0 1
1 0.843137 0 1
1 0.843137 0 1
1 0.843137 0 1
1 0.843137 0 1
1 0.843137 0 1
1 0.843137 0 1
1 0.843137 0 1
1 0.843137 0 1
1 0.843137 0 1
1 0.843137 0 1
1 0.843137 0 1
1 0.843137 0 1
1 0.843137 0 1
1 0.843137 0 1
1 0.843137 0 1
1 0.843137 0 1
1 0.843137 0 1
1 0.843137 0 1
1 0.843137 0 1
1 0.843137 0 1
1 0.843137 0 1
1 0.843137 0 1
1 0.843137 0 1
1 0.843137 0 1
1 0.843137 0 1
1 0.843137 0 1
1 0.843137 0 1
1 0.843137 0 1
1 0.843137 0 1
1 0.843137 0 1
1 0.843137 0 1
1 0.843137 0 1
1 0.843137 0 1
1 0.843137 0 1
1 0.843137 0 1
1 0.843137 0 1
1 0.843137 0 1
1 0.843137 0 1
1 0.843137 0 1
1 0.843137 0 1
1 0.843137 0 1
1 0.843137 0 1
1 0.843137 0 1
1 0.843137 0 1
1 0.843137 0 1
1 0.843137 0 1
1 0.843137 0 1
1 0.843137 0 1
1 0.843137 0 1
1 0.843137 0 1
1 0.843137 0 1
1 0.843137 0 1
1 0.843137 0 1
1 0.843137 0 1
1 0.843137 0 1
1 0.843137 0 1
1 0.843137 0 1
1 0.843137 0 1
1 0.843137 0 1
1 0.843137 0 1
1 0.843137 0 1
1 0.843137 0 1

