# vtk DataFile Version 3.0
Gocad TSurf to VTK
ASCII
DATASET POLYDATA
POINTS 90 float
21612025.000 4568780.000 -1152.500
21611400.000 4568435.000 -1092.500
21612175.000 4569575.000 -657.500
21611500.000 4569485.000 -732.500
21612200.000 4569540.000 -695.000
21612000.000 4568480.000 -1355.000
21611725.000 4568022.500 -1537.500
21611550.000 4568155.000 -1360.000
21611900.000 4567890.000 -1715.000
21611525.000 4567767.500 -1625.000
21611400.000 4567587.500 -1680.000
21611150.000 4567645.000 -1535.000
21610900.000 4567285.000 -1645.000
21610775.000 4567522.500 -1445.000
21610400.000 4566982.500 -1610.000
21610000.000 4567752.500 -1402.500
21609900.000 4566680.000 -1575.000
21609600.000 4567530.000 -1535.000
21611800.000 4570550.000 -460.000
21609825.000 4566892.500 -1565.000
21608400.000 4565660.000 -2118.750
21608900.000 4566000.000 -1937.500
21607900.000 4565320.000 -2300.000
21608175.000 4566240.000 -2213.750
21607850.000 4565442.500 -2335.000
21609900.000 4568860.000 -1355.000
21607700.000 4565810.000 -2440.000
21611325.000 4570127.500 -683.750
21611600.000 4571200.000 -475.000
21611750.000 4570712.500 -463.750
21611700.000 4570875.000 -467.500
21611750.000 4570712.500 -463.750
21611650.000 4571037.500 -471.250
21610925.000 4570550.000 -663.750
21609650.000 4568787.500 -1323.750
21609475.000 4568555.000 -1421.250
21610250.000 4569890.000 -852.500
21609150.000 4568642.500 -1261.250
21609575.000 4569230.000 -1041.250
21608900.000 4568570.000 -1230.000
21609575.000 4569227.500 -1041.250
21609050.000 4568250.000 -1487.500
21608200.000 4567640.000 -1620.000
21608075.000 4567182.500 -1825.000
21608625.000 4568565.000 -1316.250
21608350.000 4568560.000 -1402.500
21608775.000 4568732.500 -1263.750
21608650.000 4568895.000 -1297.500
21608525.000 4569057.500 -1331.250
21608400.000 4569220.000 -1365.000
21607675.000 4568840.000 -1578.750
21607900.000 4568322.500 -1586.250
21608125.000 4569342.500 -1421.250
21607550.000 4569130.000 -1582.500
21608275.000 4569447.500 -1380.000
21608150.000 4569670.000 -1395.000
21608275.000 4569445.000 -1380.000
21607850.000 4569465.000 -1477.500
21608025.000 4569895.000 -1410.000
21607425.000 4569420.000 -1586.250
21607375.000 4569360.000 -1603.750
21607575.000 4569587.500 -1533.750
21607300.000 4569710.000 -1590.000
21607725.000 4569692.500 -1492.500
21607500.000 4569850.000 -1535.000
21607900.000 4570120.000 -1425.000
21607900.000 4570130.000 -1425.000
21607450.000 4569010.000 -1617.500
21607525.000 4568660.000 -1631.250
21607600.000 4568310.000 -1645.000
21607750.000 4568142.500 -1638.750
21607575.000 4567930.000 -1722.500
21608000.000 4568095.000 -1597.500
21607900.000 4567975.000 -1632.500
21607550.000 4567550.000 -1800.000
21607525.000 4567170.000 -1877.500
21607500.000 4566790.000 -1955.000
21607550.000 4566545.000 -2076.250
21607600.000 4566300.000 -2197.500
21607825.000 4566267.500 -2235.000
21607650.000 4566055.000 -2318.750
21607750.000 4565687.500 -2405.000
21607800.000 4565565.000 -2370.000
21609400.000 4566340.000 -1756.250
21611875.000 4570342.500 -481.250
21612100.000 4569720.000 -545.000
21611875.000 4570342.500 -481.250
21612125.000 4569675.000 -582.500
21612150.000 4569630.000 -620.000
21612175.000 4569585.000 -657.500

POLYGONS 129 516
3 6 7 1
3 79 78 43
3 38 39 40
3 27 28 32
3 84 86 85
3 11 13 7
3 79 35 26
3 59 57 53
3 4 2 89
3 63 64 66
3 0 1 2
3 43 76 42
3 8 9 6
3 80 79 26
3 70 71 69
3 72 51 45
3 17 18 3
3 31 29 30
3 13 14 15
3 21 20 19
3 18 27 29
3 53 50 67
3 69 68 50
3 37 39 38
3 22 17 20
3 41 35 79
3 8 10 9
3 42 45 44
3 46 44 47
3 51 69 50
3 61 59 62
3 52 49 50
3 27 17 25
3 9 7 6
3 1 3 2
3 54 49 52
3 71 73 74
3 65 63 66
3 35 41 37
3 0 5 1
3 36 34 37
3 35 34 25
3 16 19 15
3 88 89 2
3 15 17 3
3 80 78 79
3 12 11 10
3 57 61 63
3 5 8 6
3 26 25 23
3 19 17 15
3 47 48 46
3 61 57 59
3 20 17 19
3 85 87 2
3 59 60 62
3 11 7 9
3 67 50 68
3 43 42 41
3 32 30 27
3 25 33 28
3 18 17 27
3 82 81 23
3 25 28 27
3 39 37 41
3 12 13 11
3 54 56 49
3 5 6 1
3 57 58 55
3 52 57 55
3 17 23 25
3 42 39 41
3 46 39 44
3 36 33 34
3 18 29 31
3 47 45 48
3 49 45 50
3 10 11 9
3 4 5 0
3 54 52 55
3 45 49 48
3 87 88 2
3 44 39 42
3 3 84 85
3 18 84 3
3 41 79 43
3 75 42 76
3 13 15 1
3 63 61 64
3 75 74 42
3 70 73 71
3 61 62 64
3 35 25 26
3 54 55 56
3 53 52 50
3 42 72 45
3 17 22 23
3 57 63 58
3 45 51 50
3 3 85 2
3 16 83 19
3 34 35 37
3 57 52 53
3 81 26 23
3 83 21 19
3 38 36 37
3 72 70 51
3 42 74 73
3 84 18 86
3 42 73 72
3 44 45 47
3 14 13 12
3 59 53 60
3 7 13 1
3 24 82 23
3 46 48 39
3 38 40 36
3 51 70 69
3 27 30 29
3 4 0 2
3 72 73 70
3 15 3 1
3 77 76 43
3 14 16 15
3 22 24 23
3 78 77 43
3 58 63 65
3 34 33 25
3 60 53 67

POINT_DATA 90
COLOR_SCALARS GocadColor 4
0 1 0.48333 1
0 1 0.48333 1
0 1 0.48333 1
0 1 0.48333 1
0 1 0.48333 1
0 1 0.48333 1
0 1 0.48333 1
0 1 0.48333 1
0 1 0.48333 1
0 1 0.48333 1
0 1 0.48333 1
0 1 0.48333 1
0 1 0.48333 1
0 1 0.48333 1
0 1 0.48333 1
0 1 0.48333 1
0 1 0.48333 1
0 1 0.48333 1
0 1 0.48333 1
0 1 0.48333 1
0 1 0.48333 1
0 1 0.48333 1
0 1 0.48333 1
0 1 0.48333 1
0 1 0.48333 1
0 1 0.48333 1
0 1 0.48333 1
0 1 0.48333 1
0 1 0.48333 1
0 1 0.48333 1
0 1 0.48333 1
0 1 0.48333 1
0 1 0.48333 1
0 1 0.48333 1
0 1 0.48333 1
0 1 0.48333 1
0 1 0.48333 1
0 1 0.48333 1
0 1 0.48333 1
0 1 0.48333 1
0 1 0.48333 1
0 1 0.48333 1
0 1 0.48333 1
0 1 0.48333 1
0 1 0.48333 1
0 1 0.48333 1
0 1 0.48333 1
0 1 0.48333 1
0 1 0.48333 1
0 1 0.48333 1
0 1 0.48333 1
0 1 0.48333 1
0 1 0.48333 1
0 1 0.48333 1
0 1 0.48333 1
0 1 0.48333 1
0 1 0.48333 1
0 1 0.48333 1
0 1 0.48333 1
0 1 0.48333 1
0 1 0.48333 1
0 1 0.48333 1
0 1 0.48333 1
0 1 0.48333 1
0 1 0.48333 1
0 1 0.48333 1
0 1 0.48333 1
0 1 0.48333 1
0 1 0.48333 1
0 1 0.48333 1
0 1 0.48333 1
0 1 0.48333 1
0 1 0.48333 1
0 1 0.48333 1
0 1 0.48333 1
0 1 0.48333 1
0 1 0.48333 1
0 1 0.48333 1
0 1 0.48333 1
0 1 0.48333 1
0 1 0.48333 1
0 1 0.48333 1
0 1 0.48333 1
0 1 0.48333 1
0 1 0.48333 1
0 1 0.48333 1
0 1 0.48333 1
0 1 0.48333 1
0 1 0.48333 1
0 1 0.48333 1

