# vtk DataFile Version 3.0
Gocad TSurf to VTK
ASCII
DATASET POLYDATA
POINTS 1677 float
21590887.500 4573283.750 -1444.375
21590937.500 4573333.750 -1493.750
21590737.500 4573208.750 -1436.875
21590925.000 4573332.500 -1502.500
21590612.500 4573111.250 -1374.375
21590950.000 4573335.000 -1485.000
21590962.500 4573336.250 -1476.250
21590975.000 4573337.500 -1467.500
21590987.500 4573338.750 -1458.750
21591000.000 4573340.000 -1450.000
21590087.500 4572603.750 -977.500
21589850.000 4572537.500 -944.375
21590925.000 4573232.500 -1380.000
21590812.500 4573071.250 -1275.000
21591025.000 4573337.500 -1455.625
21591050.000 4573335.000 -1461.250
21591075.000 4573332.500 -1466.875
21591100.000 4573330.000 -1472.500
21591125.000 4573327.500 -1478.125
21591150.000 4573325.000 -1483.750
21590775.000 4573017.500 -1240.000
21591175.000 4573322.500 -1489.375
21591200.000 4573320.000 -1495.000
21590700.000 4572910.000 -1170.000
21590875.000 4573017.500 -1253.750
21590700.000 4572685.000 -1076.250
21591225.000 4573322.500 -1496.250
21591250.000 4573325.000 -1497.500
21591275.000 4573327.500 -1498.750
21591137.500 4573178.750 -1379.375
21591300.000 4573330.000 -1500.000
21591325.000 4573332.500 -1501.250
21591225.000 4573232.500 -1421.250
21591350.000 4573335.000 -1502.500
21591375.000 4573337.500 -1503.750
21591400.000 4573340.000 -1505.000
21590700.000 4572550.000 -1020.000
21590950.000 4572732.500 -1135.000
21590625.000 4572253.750 -851.250
21591437.500 4573332.500 -1501.875
21591475.000 4573325.000 -1498.750
21591450.000 4573350.000 -1511.875
21591500.000 4573360.000 -1518.750
21591550.000 4573370.000 -1525.625
21591600.000 4573380.000 -1532.500
21591587.500 4573302.500 -1489.375
21591650.000 4573390.000 -1539.375
21591700.000 4573400.000 -1546.250
21591662.500 4573287.500 -1483.125
21591575.000 4573188.750 -1422.500
21591750.000 4573410.000 -1553.125
21591750.000 4573306.250 -1515.000
21591800.000 4573420.000 -1560.000
21591837.500 4573428.750 -1585.000
21591800.000 4573332.500 -1550.000
21591512.500 4572935.000 -1281.250
21591875.000 4573437.500 -1610.000
21591912.500 4573446.250 -1635.000
21591950.000 4573455.000 -1660.000
21591987.500 4573463.750 -1685.000
21592000.000 4573437.500 -1690.000
21592025.000 4573472.500 -1710.000
21592062.500 4573481.250 -1735.000
21592100.000 4573490.000 -1760.000
21591600.000 4572610.000 -1192.500
21592087.500 4573411.250 -1719.375
21591112.500 4572285.000 -902.500
21591250.000 4571730.000 -705.000
21590500.000 4571760.000 -570.000
21590762.500 4571511.250 -535.625
21590150.000 4571650.000 -397.500
21589800.000 4570950.000 15.000
21589550.000 4571012.500 127.500
21590100.000 4571047.500 -142.500
21590525.000 4570885.000 -161.250
21589712.500 4570565.000 159.375
21589612.500 4570676.250 35.625
21589700.000 4570510.000 180.000
21590050.000 4570665.000 27.500
21589662.500 4570508.750 146.875
21589625.000 4570507.500 113.750
21589650.000 4570488.750 161.250
21589300.000 4570060.000 358.125
21589550.000 4570446.250 123.750
21589512.500 4570503.750 14.375
21589300.000 4570100.000 311.250
21589300.000 4570220.000 170.625
21589225.000 4570015.000 383.750
21589187.500 4570012.500 373.125
21589262.500 4570017.500 394.375
21589262.500 4570008.750 394.375
21589300.000 4570020.000 405.000
21589300.000 4570010.000 405.000
21589362.500 4570020.000 400.000
21589262.500 4570017.500 394.375
21589262.500 4570008.750 394.375
21589262.500 4570007.500 394.375
21589262.500 4570017.500 394.375
21589225.000 4570005.000 383.750
21589187.500 4570002.500 373.125
21589150.000 4570000.000 362.500
21589112.500 4570003.750 351.875
21589112.500 4569997.500 351.875
21589075.000 4569995.000 341.250
21589037.500 4570001.250 330.625
21589037.500 4569992.500 330.625
21589000.000 4569990.000 320.000
21588975.000 4570053.750 306.250
21589237.500 4570351.250 52.500
21588925.000 4569986.250 353.125
21588850.000 4569982.500 386.250
21588875.000 4570265.000 251.250
21588987.500 4570396.250 142.500
21588775.000 4569978.750 419.375
21588700.000 4569975.000 452.500
21588666.008 4569973.301 467.515
21588640.461 4569989.418 471.130
21588825.000 4570375.000 223.750
21588635.539 4569992.523 471.827
21589000.000 4570527.500 71.250
21588425.000 4570436.250 185.000
21589150.000 4570433.750 50.625
21589175.000 4570577.500 73.750
21589275.000 4570387.500 38.750
21589225.000 4570482.500 56.250
21589400.000 4570382.500 67.500
21589362.500 4570527.500 -61.875
21589100.000 4570720.000 100.000
21589037.500 4571023.750 100.000
21588787.500 4570702.500 17.500
21588912.500 4570942.500 62.500
21588500.000 4570740.000 -95.000
21588200.000 4570440.000 170.000
21588675.000 4570815.000 -50.000
21588575.000 4570941.250 -154.375
21588800.000 4571070.000 40.000
21589050.000 4571181.250 111.875
21588775.000 4571180.000 -92.500
21588637.500 4571122.500 -243.125
21588887.500 4571316.250 -121.250
21588962.500 4571238.750 26.250
21588850.000 4571355.000 -195.000
21588750.000 4571295.000 -225.000
21589000.000 4571398.750 -51.875
21589050.000 4571535.000 -102.500
21589000.000 4571332.500 -1.250
21589087.500 4571388.750 49.375
21589062.500 4571741.250 -300.000
21589375.000 4571747.500 -275.000
21589012.500 4571790.000 -383.750
21588775.000 4571432.500 -342.500
21589150.000 4571846.250 -326.250
21589300.000 4571805.000 -300.000
21589100.000 4571895.000 -410.000
21589125.000 4571947.500 -463.750
21589037.500 4571890.000 -541.250
21588850.000 4571800.000 -697.500
21588650.000 4571523.750 -563.125
21589100.000 4572035.000 -710.000
21589100.000 4571965.000 -560.000
21589100.000 4572140.000 -935.000
21588700.000 4571870.000 -1090.000
21589175.000 4572122.500 -721.250
21589200.000 4572210.000 -850.000
21589162.500 4572078.750 -656.875
21589150.000 4572035.000 -592.500
21589287.500 4572147.500 -647.500
21589212.500 4572032.500 -522.500
21589137.500 4571991.250 -528.125
21589625.000 4572455.000 -897.500
21589812.500 4572507.500 -923.750
21589475.000 4572350.000 -849.375
21589562.500 4572437.500 -888.750
21589362.500 4572262.500 -772.500
21589400.000 4572353.750 -911.875
21589500.000 4572420.000 -880.000
21589325.000 4572357.500 -1097.500
21589400.000 4572387.500 -988.750
21589200.000 4572262.500 -1021.250
21589200.000 4572288.750 -1106.875
21589112.500 4572175.000 -1010.000
21589125.000 4572210.000 -1085.000
21589025.000 4572155.000 -1102.500
21589137.500 4572245.000 -1160.000
21588787.500 4572150.000 -1540.625
21588950.000 4572375.000 -1590.000
21588375.000 4571770.000 -1232.500
21588175.000 4572007.500 -1556.250
21588700.000 4571860.000 -1090.000
21588300.000 4571620.000 -1075.000
21588700.000 4571780.000 -940.000
21588700.000 4571685.000 -790.000
21588500.000 4571565.000 -782.500
21588362.500 4571420.000 -759.375
21587837.500 4571268.750 -802.500
21588100.000 4571050.000 -365.000
21587975.000 4571658.750 -1171.250
21587500.000 4571553.750 -1074.375
21587700.000 4571750.000 -1310.000
21588200.000 4572050.000 -1605.000
21588675.000 4572282.500 -1626.250
21588200.000 4572060.000 -1605.000
21588700.000 4572320.000 -1645.000
21588737.500 4572281.250 -1630.000
21588700.000 4572330.000 -1645.000
21589200.000 4572630.000 -1575.000
21589200.000 4572577.500 -1565.000
21589250.000 4572395.000 -1360.000
21589400.000 4572710.000 -1605.000
21589400.000 4572703.750 -1585.625
21589500.000 4572600.000 -1450.000
21589400.000 4572720.000 -1605.000
21589775.000 4572832.500 -1545.000
21589825.000 4572785.000 -1373.750
21589400.000 4572720.000 -1620.000
21590162.500 4573178.750 -1900.625
21589900.000 4572890.000 -1520.000
21590200.000 4573220.000 -1955.000
21590350.000 4573253.750 -1896.875
21590600.000 4573400.000 -2035.000
21590600.000 4573388.750 -2005.625
21590600.000 4573377.500 -1976.250
21590600.000 4573366.250 -1946.875
21590500.000 4573287.500 -1838.750
21590600.000 4573355.000 -1917.500
21590600.000 4573343.750 -1888.125
21590600.000 4573332.500 -1858.750
21590600.000 4573321.250 -1829.375
21590600.000 4573310.000 -1800.000
21590100.000 4572965.000 -1498.750
21590612.500 4573295.000 -1754.375
21590662.500 4573235.000 -1571.875
21590637.500 4573312.500 -1765.000
21590675.000 4573315.000 -1730.000
21590712.500 4573317.500 -1695.000
21590750.000 4573320.000 -1660.000
21590787.500 4573322.500 -1625.000
21590825.000 4573325.000 -1590.000
21590700.000 4573190.000 -1435.000
21590862.500 4573327.500 -1555.000
21590900.000 4573330.000 -1520.000
21590912.500 4573331.250 -1511.250
21589650.000 4572507.500 -936.875
21589800.000 4572530.000 -942.500
21589937.500 4572458.750 -864.375
21589562.500 4571851.250 -350.625
21589500.000 4571750.000 -265.000
21589400.000 4571777.500 -282.500
21589950.000 4572050.000 -548.125
21589537.500 4571723.750 -260.000
21589450.000 4571440.000 -62.500
21589275.000 4571390.000 18.750
21589212.500 4571231.250 135.625
21589300.000 4571087.500 171.250
21589300.000 4570940.000 265.000
21589600.000 4572490.000 -920.000
21589575.000 4572511.250 -999.375
21589487.500 4572441.250 -951.250
21589475.000 4572462.500 -1022.500
21589400.000 4572421.250 -1065.625
21589450.000 4572505.000 -1165.000
21589300.000 4572370.000 -1185.000
21589437.500 4572526.250 -1236.250
21589200.000 4572315.000 -1192.500
21589450.000 4572567.500 -1321.250
21589475.000 4572556.250 -1256.875
21589525.000 4572575.000 -1321.250
21589550.000 4572550.000 -1192.500
21589500.000 4572545.000 -1192.500
21589637.500 4572548.750 -1008.125
21589525.000 4572533.750 -1128.125
21587200.000 4571460.000 -990.000
21587125.000 4571357.500 -843.750
21586600.000 4571110.000 -460.000
21586512.500 4571025.000 -358.750
21585800.000 4570640.000 295.000
21586925.000 4570965.000 -366.250
21585987.500 4570515.000 248.750
21585837.500 4570561.250 315.625
21585900.000 4570430.000 350.000
21586175.000 4570507.500 200.000
21585875.000 4570482.500 336.250
21585862.500 4570508.750 329.375
21585887.500 4570456.250 343.125
21586587.500 4570623.750 -25.000
21585937.500 4570400.000 353.125
21586050.000 4570310.000 362.500
21586087.500 4570280.000 365.625
21586125.000 4570250.000 368.750
21586162.500 4570220.000 371.875
[...]
POINT_DATA 1677
COLOR_SCALARS GocadColor 4
0.0930037 0.0930037 0.439216 1
0.0930037 0.0930037 0.439216 1
0.0930037 0.0930037 0.439216 1
0.0930037 0.0930037 0.439216 1
0.0930037 0.0930037 0.439216 1
0.0930037 0.0930037 0.439216 1
0.0930037 0.0930037 0.439216 1
0.0930037 0.0930037 0.439216 1
0.0930037 0.0930037 0.439216 1
0.0930037 0.0930037 0.439216 1
0.0930037 0.0930037 0.439216 1
0.0930037 0.0930037 0.439216 1
0.0930037 0.0930037 0.439216 1
0.0930037 0.0930037 0.439216 1
0.0930037 0.0930037 0.439216 1
0.0930037 0.0930037 0.439216 1
0.0930037 0.0930037 0.439216 1
0.0930037 0.0930037 0.439216 1
0.0930037 0.0930037 0.439216 1
0.0930037 0.0930037 0.439216 1
0.0930037 0.0930037 0.439216 1
0.0930037 0.0930037 0.439216 1
0.0930037 0.0930037 0.439216 1
0.0930037 0.0930037 0.439216 1
0.0930037 0.0930037 0.439216 1
0.0930037 0.0930037 0.439216 1
0.0930037 0.0930037 0.439216 1
0.0930037 0.0930037 0.439216 1
0.0930037 0.0930037 0.439216 1
0.0930037 0.0930037 0.439216 1
0.0930037 0.0930037 0.439216 1
0.0930037 0.0930037 0.439216 1
0.0930037 0.0930037 0.439216 1
0.0930037 0.0930037 0.439216 1
0.0930037 0.0930037 0.439216 1
0.0930037 0.0930037 0.439216 1
0.0930037 0.0930037 0.439216 1
0.0930037 0.0930037 0.439216 1
0.0930037 0.0930037 0.439216 1
0.0930037 0.0930037 0.439216 1
0.0930037 0.0930037 0.439216 1
0.0930037 0.0930037 0.439216 1
0.0930037 0.0930037 0.439216 1
0.0930037 0.0930037 0.439216 1
0.0930037 0.0930037 0.439216 1
0.0930037 0.0930037 0.439216 1
0.0930037 0.0930037 0.439216 1
0.0930037 0.0930037 0.439216 1
0.0930037 0.0930037 0.439216 1
0.0930037 0.0930037 0.439216 1
0.0930037 0.0930037 0.439216 1
0.0930037 0.0930037 0.439216 1
0.0930037 0.0930037 0.439216 1
0.0930037 0.0930037 0.439216 1
0.0930037 0.0930037 0.439216 1
0.0930037 0.0930037 0.439216 1
0.0930037 0.0930037 0.439216 1
0.0930037 0.0930037 0.439216 1
0.0930037 0.0930037 0.439216 1
0.0930037 0.0930037 0.439216 1
0.0930037 0.0930037 0.439216 1
0.0930037 0.0930037 0.439216 1
0.0930037 0.0930037 0.439216 1
0.0930037 0.0930037 0.439216 1
0.0930037 0.0930037 0.439216 1
0.0930037 0.0930037 0.439216 1
0.0930037 0.0930037 0.439216 1
0.0930037 0.0930037 0.439216 1
0.0930037 0.0930037 0.439216 1
0.0930037 0.0930037 0.439216 1
0.0930037 0.0930037 0.439216 1
0.0930037 0.0930037 0.439216 1
0.0930037 0.0930037 0.439216 1
0.0930037 0.0930037 0.439216 1
0.0930037 0.0930037 0.439216 1
0.0930037 0.0930037 0.439216 1
0.0930037 0.0930037 0.439216 1
0.0930037 0.0930037 0.439216 1
0.0930037 0.0930037 0.439216 1
0.0930037 0.0930037 0.439216 1
0.0930037 0.0930037 0.439216 1
0.0930037 0.0930037 0.439216 1
0.0930037 0.0930037 0.439216 1
0.0930037 0.0930037 0.439216 1
0.0930037 0.0930037 0.439216 1
0.0930037 0.0930037 0.439216 1
0.0930037 0.0930037 0.439216 1
0.0930037 0.0930037 0.439216 1
0.0930037 0.0930037 0.439216 1
0.0930037 0.0930037 0.439216 1
0.0930037 0.0930037 0.439216 1
0.0930037 0.0930037 0.439216 1
0.0930037 0.0930037 0.439216 1
0.0930037 0.0930037 0.439216 1
0.0930037 0.0930037 0.439216 1
0.0930037 0.0930037 0.439216 1
0.0930037 0.0930037 0.439216 1
0.0930037 0.0930037 0.439216 1
0.0930037 0.0930037 0.439216 1
0.0930037 0.0930037 0.439216 1
0.0930037 0.0930037 0.439216 1
0.0930037 0.0930037 0.439216 1
0.0930037 0.0930037 0.439216 1
0.0930037 0.0930037 0.439216 1
0.0930037 0.0930037 0.439216 1
0.0930037 0.0930037 0.439216 1
0.0930037 0.0930037 0.439216 1
0.0930037 0.0930037 0.439216 1
0.0930037 0.0930037 0.439216 1
0.0930037 0.0930037 0.439216 1
0.0930037 0.0930037 0.439216 1
0.0930037 0.0930037 0.439216 1
0.0930037 0.0930037 0.439216 1
0.0930037 0.0930037 0.439216 1
0.0930037 0.0930037 0.439216 1
0.0930037 0.0930037 0.439216 1
0.0930037 0.0930037 0.439216 1
0.0930037 0.0930037 0.439216 1
0.0930037 0.0930037 0.439216 1
0.0930037 0.0930037 0.439216 1
0.0930037 0.0930037 0.439216 1
0.0930037 0.0930037 0.439216 1
0.0930037 0.0930037 0.439216 1
0.0930037 0.0930037 0.439216 1
0.0930037 0.0930037 0.439216 1
0.0930037 0.0930037 0.439216 1
0.0930037 0.0930037 0.439216 1
0.0930037 0.0930037 0.439216 1
0.0930037 0.0930037 0.439216 1
0.0930037 0.0930037 0.439216 1
0.0930037 0.0930037 0.439216 1
0.0930037 0.0930037 0.439216 1
0.0930037 0.0930037 0.439216 1
0.0930037 0.0930037 0.439216 1
0.0930037 0.0930037 0.439216 1
0.0930037 0.0930037 0.439216 1
0.0930037 0.0930037 0.439216 1
0.0930037 0.0930037 0.439216 1
0.0930037 0.0930037 0.439216 1
0.0930037 0.0930037 0.439216 1
0.0930037 0.0930037 0.439216 1
0.0930037 0.0930037 0.439216 1
0.0930037 0.0930037 0.439216 1
0.0930037 0.0930037 0.439216 1
0.0930037 0.0930037 0.439216 1
0.0930037 0.0930037 0.439216 1
0.0930037 0.0930037 0.439216 1
0.0930037 0.0930037 0.439216 1
0.0930037 0.0930037 0.439216 1
0.0930037 0.0930037 0.439216 1
0.0930037 0.0930037 0.439216 1
0.0930037 0.0930037 0.439216 1
0.0930037 0.0930037 0.439216 1
0.0930037 0.0930037 0.439216 1
0.0930037 0.0930037 0.439216 1
0.0930037 0.0930037 0.439216 1
0.0930037 0.0930037 0.439216 1
0.0930037 0.0930037 0.439216 1
0.0930037 0.0930037 0.439216 1
0.0930037 0.0930037 0.439216 1
0.0930037 0.0930037 0.439216 1
0.0930037 0.0930037 0.439216 1
0.0930037 0.0930037 0.439216 1
0.0930037 0.0930037 0.439216 1
0.0930037 0.0930037 0.439216 1
0.0930037 0.0930037 0.439216 1
0.0930037 0.0930037 0.439216 1
0.0930037 0.0930037 0.439216 1
0.0930037 0.0930037 0.439216 1
0.0930037 0.0930037 0.439216 1
0.0930037 0.0930037 0.439216 1
0.0930037 0.0930037 0.439216 1
0.0930037 0.0930037 0.439216 1
0.0930037 0.0930037 0.439216 1
0.0930037 0.0930037 0.439216 1
0.0930037 0.0930037 0.439216 1
0.0930037 0.0930037 0.439216 1
0.0930037 0.0930037 0.439216 1
0.0930037 0.0930037 0.439216 1
0.0930037 0.0930037 0.439216 1
0.0930037 0.0930037 0.439216 1
0.0930037 0.0930037 0.439216 1
0.0930037 0.0930037 0.439216 1
0.0930037 0.0930037 0.439216 1
0.0930037 0.0930037 0.439216 1
0.0930037 0.0930037 0.439216 1
0.0930037 0.0930037 0.439216 1
0.0930037 0.0930037 0.439216 1
0.0930037 0.0930037 0.439216 1
0.0930037 0.0930037 0.439216 1
0.0930037 0.0930037 0.439216 1
0.0930037 0.0930037 0.439216 1
0.0930037 0.0930037 0.439216 1
0.0930037 0.0930037 0.439216 1
0.0930037 0.0930037 0.439216 1
0.0930037 0.0930037 0.439216 1
0.0930037 0.0930037 0.439216 1
0.0930037 0.0930037 0.439216 1
0.0930037 0.0930037 0.439216 1
0.0930037 0.0930037 0.439216 1
0.0930037 0.0930037 0.439216 1
0.0930037 0.0930037 0.439216 1
0.0930037 0.0930037 0.439216 1
0.0930037 0.0930037 0.439216 1
0.0930037 0.0930037 0.439216 1
0.0930037 0.0930037 0.439216 1
0.0930037 0.0930037 0.439216 1
0.0930037 0.0930037 0.439216 1
0.0930037 0.0930037 0.439216 1
0.0930037 0.0930037 0.439216 1
0.0930037 0.0930037 0.439216 1
0.0930037 0.0930037 0.439216 1
0.0930037 0.0930037 0.439216 1
0.0930037 0.0930037 0.439216 1
0.0930037 0.0930037 0.439216 1
0.0930037 0.0930037 0.439216 1
0.0930037 0.0930037 0.439216 1
0.0930037 0.0930037 0.439216 1
0.0930037 0.0930037 0.439216 1
0.0930037 0.0930037 0.439216 1
0.0930037 0.0930037 0.439216 1
0.0930037 0.0930037 0.439216 1
0.0930037 0.0930037 0.439216 1
0.0930037 0.0930037 0.439216 1
0.0930037 0.0930037 0.439216 1
0.0930037 0.0930037 0.439216 1
0.0930037 0.0930037 0.439216 1
0.0930037 0.0930037 0.439216 1
0.0930037 0.0930037 0.439216 1
0.0930037 0.0930037 0.439216 1
0.0930037 0.0930037 0.439216 1
0.0930037 0.0930037 0.439216 1
0.0930037 0.0930037 0.439216 1
0.0930037 0.0930037 0.439216 1
0.0930037 0.0930037 0.439216 1
0.0930037 0.0930037 0.439216 1
0.0930037 0.0930037 0.439216 1
0.0930037 0.0930037 0.439216 1
0.0930037 0.0930037 0.439216 1
0.0930037 0.0930037 0.439216 1
0.0930037 0.0930037 0.439216 1
0.0930037 0.0930037 0.439216 1
0.0930037 0.0930037 0.439216 1
0.0930037 0.0930037 0.439216 1
0.0930037 0.0930037 0.439216 1
0.0930037 0.0930037 0.439216 1
0.0930037 0.0930037 0.439216 1
0.0930037 0.0930037 0.439216 1
0.0930037 0.0930037 0.439216 1
0.0930037 0.0930037 0.439216 1
0.0930037 0.0930037 0.439216 1
0.0930037 0.0930037 0.439216 1
0.0930037 0.0930037 0.439216 1
0.0930037 0.0930037 0.439216 1
0.0930037 0.0930037 0.439216 1
0.0930037 0.0930037 0.439216 1
0.0930037 0.0930037 0.439216 1
0.0930037 0.0930037 0.439216 1
0.0930037 0.0930037 0.439216 1
0.0930037 0.0930037 0.439216 1
0.0930037 0.0930037 0.439216 1
0.0930037 0.0930037 0.439216 1
0.0930037 0.0930037 0.439216 1
0.0930037 0.0930037 0.439216 1
0.0930037 0.0930037 0.439216 1
0.0930037 0.0930037 0.439216 1
0.0930037 0.0930037 0.439216 1
0.0930037 0.0930037 0.439216 1
0.0930037 0.0930037 0.439216 1
0.0930037 0.0930037 0.439216 1
0.0930037 0.0930037 0.439216 1
0.0930037 0.0930037 0.439216 1
0.0930037 0.0930037 0.439216 1
0.0930037 0.0930037 0.439216 1
0.0930037 0.0930037 0.439216 1
0.0930037 0.0930037 0.439216 1
0.0930037 0.0930037 0.439216 1
0.0930037 0.0930037 0.439216 1
0.0930037 0.0930037 0.439216 1
0.0930037 0.0930037 0.439216 1
0.0930037 0.0930037 0.439216 1
0.0930037 0.0930037 0.439216 1
0.0930037 0.0930037 0.439216 1
0.0930037 0.0930037 0.439216 1
0.0930037 0.0930037 0.439216 1
0.0930037 0.0930037 0.439216 1
0.0930037 0.0930037 0.439216 1
0.0930037 0.0930037 0.439216 1
0.0930037 0.0930037 0.439216 1
0.0930037 0.0930037 0.439216 1
0.0930037 0.0930037 0.439216 1
0.0930037 0.0930037 0.439216 1
0.0930037 0.0930037 0.439216 1
0.0930037 0.0930037 0.439216 1
0.0930037 0.0930037 0.439216 1
0.0930037 0.0930037 0.439216 1
0.0930037 0.0930037 0.439216 1
0.0930037 0.0930037 0.439216 1
0.0930037 0.0930037 0.439216 1
0.0930037 0.0930037 0.439216 1
0.0930037 0.0930037 0.439216 1
0.0930037 0.0930037 0.439216 1
0.0930037 0.0930037 0.439216 1
0.0930037 0.0930037 0.439216 1
0.0930037 0.0930037 0.439216 1
0.0930037 0.0930037 0.439216 1
0.0930037 0.0930037 0.439216 1
0.0930037 0.0930037 0.439216 1
0.0930037 0.0930037 0.439216 1
0.0930037 0.0930037 0.439216 1
0.0930037 0.0930037 0.439216 1
0.0930037 0.0930037 0.439216 1
0.0930037 0.0930037 0.439216 1
0.0930037 0.0930037 0.439216 1
0.0930037 0.0930037 0.439216 1
0.0930037 0.0930037 0.439216 1
0.0930037 0.0930037 0.439216 1
0.0930037 0.0930037 0.439216 1
0.0930037 0.0930037 0.439216 1
0.0930037 0.0930037 0.439216 1
0.0930037 0.0930037 0.439216 1
0.0930037 0.0930037 0.439216 1
0.0930037 0.0930037 0.439216 1
0.0930037 0.0930037 0.439216 1
0.0930037 0.0930037 0.439216 1
0.0930037 0.0930037 0.439216 1
0.0930037 0.0930037 0.439216 1
0.0930037 0.0930037 0.439216 1
0.0930037 0.0930037 0.439216 1
0.0930037 0.0930037 0.439216 1
0.0930037 0.0930037 0.439216 1
0.0930037 0.0930037 0.439216 1
0.0930037 0.0930037 0.439216 1
0.0930037 0.0930037 0.439216 1
0.0930037 0.0930037 0.439216 1
0.0930037 0.0930037 0.439216 1
0.0930037 0.0930037 0.439216 1
0.0930037 0.0930037 0.439216 1
0.0930037 0.0930037 0.439216 1
0.0930037 0.0930037 0.439216 1
0.0930037 0.0930037 0.439216 1
0.0930037 0.0930037 0.439216 1
0.0930037 0.0930037 0.439216 1
0.0930037 0.0930037 0.439216 1
0.0930037 0.0930037 0.439216 1
0.0930037 0.0930037 0.439216 1
0.0930037 0.0930037 0.439216 1
0.0930037 0.0930037 0.439216 1
0.0930037 0.0930037 0.439216 1
0.0930037 0.0930037 0.439216 1
0.0930037 0.0930037 0.439216 1
0.0930037 0.0930037 0.439216 1
0.0930037 0.0930037 0.439216 1
0.0930037 0.0930037 0.439216 1
0.0930037 0.0930037 0.439216 1
0.0930037 0.0930037 0.439216 1
0.0930037 0.0930037 0.439216 1
0.0930037 0.0930037 0.439216 1
0.0930037 0.0930037 0.439216 1
0.0930037 0.0930037 0.439216 1
0.0930037 0.0930037 0.439216 1
0.0930037 0.0930037 0.439216 1
0.0930037 0.0930037 0.439216 1
0.0930037 0.0930037 0.439216 1
0.0930037 0.0930037 0.439216 1
0.0930037 0.0930037 0.439216 1
0.0930037 0.0930037 0.439216 1
0.0930037 0.0930037 0.439216 1
0.0930037 0.0930037 0.439216 1
0.0930037 0.0930037 0.439216 1
0.0930037 0.0930037 0.439216 1
0.0930037 0.0930037 0.439216 1
0.0930037 0.0930037 0.439216 1
0.0930037 0.0930037 0.439216 1
0.0930037 0.0930037 0.439216 1
0.0930037 0.0930037 0.439216 1
0.0930037 0.0930037 0.439216 1
0.0930037 0.0930037 0.439216 1
0.0930037 0.0930037 0.439216 1
0.0930037 0.0930037 0.439216 1
0.0930037 0.0930037 0.439216 1
0.0930037 0.0930037 0.439216 1
0.0930037 0.0930037 0.439216 1
0.0930037 0.0930037 0.439216 1
0.0930037 0.0930037 0.439216 1
0.0930037 0.0930037 0.439216 1
0.0930037 0.0930037 0.439216 1
0.0930037 0.0930037 0.439216 1
0.0930037 0.0930037 0.439216 1
0.0930037 0.0930037 0.439216 1
0.0930037 0.0930037 0.439216 1
0.0930037 0.0930037 0.439216 1
0.0930037 0.0930037 0.439216 1
0.0930037 0.0930037 0.439216 1
0.0930037 0.0930037 0.439216 1
0.0930037 0.0930037 0.439216 1
0.0930037 0.0930037 0.439216 1
0.0930037 0.0930037 0.439216 1
0.0930037 0.0930037 0.439216 1
0.0930037 0.0930037 0.439216 1
0.0930037 0.0930037 0.439216 1
0.0930037 0.0930037 0.439216 1
0.0930037 0.0930037 0.439216 1
0.0930037 0.0930037 0.439216 1
0.0930037 0.0930037 0.439216 1
0.0930037 0.0930037 0.439216 1
0.0930037 0.0930037 0.439216 1
0.0930037 0.0930037 0.439216 1
0.0930037 0.0930037 0.439216 1
0.0930037 0.0930037 0.439216 1
0.0930037 0.0930037 0.439216 1
0.0930037 0.0930037 0.439216 1
0.0930037 0.0930037 0.439216 1
0.0930037 0.0930037 0.439216 1
0.0930037 0.0930037 0.439216 1
0.0930037 0.0930037 0.439216 1
0.0930037 0.0930037 0.439216 1
0.0930037 0.0930037 0.439216 1
0.0930037 0.0930037 0.439216 1
0.0930037 0.0930037 0.439216 1
0.0930037 0.0930037 0.439216 1
0.0930037 0.0930037 0.439216 1
0.0930037 0.0930037 0.439216 1
0.0930037 0.0930037 0.439216 1
0.0930037 0.0930037 0.439216 1
0.0930037 0.0930037 0.439216 1
0.0930037 0.0930037 0.439216 1
0.0930037 0.0930037 0.439216 1
0.0930037 0.0930037 0.439216 1
0.0930037 0.0930037 0.439216 1
0.0930037 0.0930037 0.439216 1
0.0930037 0.0930037 0.439216 1
0.0930037 0.0930037 0.439216 1
0.0930037 0.0930037 0.439216 1
0.0930037 0.0930037 0.439216 1
0.0930037 0.0930037 0.439216 1
0.0930037 0.0930037 0.439216 1
0.0930037 0.0930037 0.439216 1
0.0930037 0.0930037 0.439216 1
0.0930037 0.0930037 0.439216 1
0.0930037 0.0930037 0.439216 1
0.0930037 0.0930037 0.439216 1
0.0930037 0.0930037 0.439216 1
0.0930037 0.0930037 0.439216 1
0.0930037 0.0930037 0.439216 1
0.0930037 0.0930037 0.439216 1
0.0930037 0.0930037 0.439216 1
0.0930037 0.0930037 0.439216 1
0.0930037 0.0930037 0.439216 1
0.0930037 0.0930037 0.439216 1
0.0930037 0.0930037 0.439216 1
0.0930037 0.0930037 0.439216 1
0.0930037 0.0930037 0.439216 1
0.0930037 0.0930037 0.439216 1
0.0930037 0.0930037 0.439216 1
0.0930037 0.0930037 0.439216 1
0.0930037 0.0930037 0.439216 1
0.0930037 0.0930037 0.439216 1
0.0930037 0.0930037 0.439216 1
0.0930037 0.0930037 0.439216 1
0.0930037 0.0930037 0.439216 1
0.0930037 0.0930037 0.439216 1
0.0930037 0.0930037 0.439216 1
0.0930037 0.0930037 0.439216 1
0.0930037 0.0930037 0.439216 1
0.0930037 0.0930037 0.439216 1
0.0930037 0.0930037 0.439216 1
0.0930037 0.0930037 0.439216 1
0.0930037 0.0930037 0.439216 1
0.0930037 0.0930037 0.439216 1
0.0930037 0.0930037 0.439216 1
0.0930037 0.0930037 0.439216 1
0.0930037 0.0930037 0.439216 1
0.0930037 0.0930037 0.439216 1
0.0930037 0.0930037 0.439216 1
0.0930037 0.0930037 0.439216 1
0.0930037 0.0930037 0.439216 1
0.0930037 0.0930037 0.439216 1
0.0930037 0.0930037 0.439216 1
0.0930037 0.0930037 0.439216 1
0.0930037 0.0930037 0.439216 1
0.0930037 0.0930037 0.439216 1
0.0930037 0.0930037 0.439216 1
0.0930037 0.0930037 0.439216 1
0.0930037 0.0930037 0.439216 1
0.0930037 0.0930037 0.439216 1
0.0930037 0.0930037 0.439216 1
0.0930037 0.0930037 0.439216 1
0.0930037 0.0930037 0.439216 1
0.0930037 0.0930037 0.439216 1
0.0930037 0.0930037 0.439216 1
0.0930037 0.0930037 0.439216 1
0.0930037 0.0930037 0.439216 1
0.0930037 0.0930037 0.439216 1
0.0930037 0.0930037 0.439216 1
0.0930037 0.0930037 0.439216 1
0.0930037 0.0930037 0.439216 1
0.0930037 0.0930037 0.439216 1
0.0930037 0.0930037 0.439216 1
0.0930037 0.0930037 0.439216 1
0.0930037 0.0930037 0.439216 1
0.0930037 0.0930037 0.439216 1
0.0930037 0.0930037 0.439216 1
0.0930037 0.0930037 0.439216 1
0.0930037 0.0930037 0.439216 1
0.0930037 0.0930037 0.439216 1
0.0930037 0.0930037 0.439216 1
0.0930037 0.0930037 0.439216 1
0.0930037 0.0930037 0.439216 1
0.0930037 0.0930037 0.439216 1
0.0930037 0.0930037 0.439216 1
0.0930037 0.0930037 0.439216 1
0.0930037 0.0930037 0.439216 1
0.0930037 0.0930037 0.439216 1
0.0930037 0.0930037 0.439216 1
0.0930037 0.0930037 0.439216 1
0.0930037 0.0930037 0.439216 1
0.0930037 0.0930037 0.439216 1
0.0930037 0.0930037 0.439216 1
0.0930037 0.0930037 0.439216 1
0.0930037 0.0930037 0.439216 1
0.0930037 0.0930037 0.439216 1
0.0930037 0.0930037 0.439216 1
0.0930037 0.0930037 0.439216 1
0.0930037 0.0930037 0.439216 1
0.0930037 0.0930037 0.439216 1
0.0930037 0.0930037 0.439216 1
0.0930037 0.0930037 0.439216 1
0.0930037 0.0930037 0.439216 1
0.0930037 0.0930037 0.439216 1
0.0930037 0.0930037 0.439216 1
0.0930037 0.0930037 0.439216 1
0.0930037 0.0930037 0.439216 1
0.0930037 0.0930037 0.439216 1
0.0930037 0.0930037 0.439216 1
0.0930037 0.0930037 0.439216 1
0.0930037 0.0930037 0.439216 1
0.0930037 0.0930037 0.439216 1
0.0930037 0.0930037 0.439216 1
0.0930037 0.0930037 0.439216 1
0.0930037 0.0930037 0.439216 1
0.0930037 0.0930037 0.439216 1
0.0930037 0.0930037 0.439216 1
0.0930037 0.0930037 0.439216 1
0.0930037 0.0930037 0.439216 1
0.0930037 0.0930037 0.439216 1
0.0930037 0.0930037 0.439216 1
0.0930037 0.0930037 0.439216 1
0.0930037 0.0930037 0.439216 1
0.0930037 0.0930037 0.439216 1
0.0930037 0.0930037 0.439216 1
0.0930037 0.0930037 0.439216 1
0.0930037 0.0930037 0.439216 1
0.0930037 0.0930037 0.439216 1
0.0930037 0.0930037 0.439216 1
0.0930037 0.0930037 0.439216 1
0.0930037 0.0930037 0.439216 1
0.0930037 0.0930037 0.439216 1
0.0930037 0.0930037 0.439216 1
0.0930037 0.0930037 0.439216 1
0.0930037 0.0930037 0.439216 1
0.0930037 0.0930037 0.439216 1
0.0930037 0.0930037 0.439216 1
0.0930037 0.0930037 0.439216 1
0.0930037 0.0930037 0.439216 1
0.0930037 0.0930037 0.439216 1
0.0930037 0.0930037 0.439216 1
0.0930037 0.0930037 0.439216 1
0.0930037 0.0930037 0.439216 1
0.0930037 0.0930037 0.439216 1
0.0930037 0.0930037 0.439216 1
0.0930037 0.0930037 0.439216 1
0.0930037 0.0930037 0.439216 1
0.0930037 0.0930037 0.439216 1
0.0930037 0.0930037 0.439216 1
0.0930037 0.0930037 0.439216 1
0.0930037 0.0930037 0.439216 1
0.0930037 0.0930037 0.439216 1
0.0930037 0.0930037 0.439216 1
0.0930037 0.0930037 0.439216 1
0.0930037 0.0930037 0.439216 1
0.0930037 0.0930037 0.439216 1
0.0930037 0.0930037 0.439216 1
0.0930037 0.0930037 0.439216 1
0.0930037 0.0930037 0.439216 1
0.0930037 0.0930037 0.439216 1
0.0930037 0.0930037 0.439216 1
0.0930037 0.0930037 0.439216 1
0.0930037 0.0930037 0.439216 1
0.0930037 0.0930037 0.439216 1
0.0930037 0.0930037 0.439216 1
0.0930037 0.0930037 0.439216 1
0.0930037 0.0930037 0.439216 1
0.0930037 0.0930037 0.439216 1
0.0930037 0.0930037 0.439216 1
0.0930037 0.0930037 0.439216 1
0.0930037 0.0930037 0.439216 1
0.0930037 0.0930037 0.439216 1
0.0930037 0.0930037 0.439216 1
0.0930037 0.0930037 0.439216 1
0.0930037 0.0930037 0.439216 1
0.0930037 0.0930037 0.439216 1
0.0930037 0.0930037 0.439216 1
0.0930037 0.0930037 0.439216 1
0.0930037 0.0930037 0.439216 1
0.0930037 0.0930037 0.439216 1
0.0930037 0.0930037 0.439216 1
0.0930037 0.0930037 0.439216 1
0.0930037 0.0930037 0.439216 1
0.0930037 0.0930037 0.439216 1
0.0930037 0.0930037 0.439216 1
0.0930037 0.0930037 0.439216 1
0.0930037 0.0930037 0.439216 1
0.0930037 0.0930037 0.439216 1
0.0930037 0.0930037 0.439216 1
0.0930037 0.0930037 0.439216 1
0.0930037 0.0930037 0.439216 1
0.0930037 0.0930037 0.439216 1
0.0930037 0.0930037 0.439216 1
0.0930037 0.0930037 0.439216 1
0.0930037 0.0930037 0.439216 1
0.0930037 0.0930037 0.439216 1
0.0930037 0.0930037 0.439216 1
0.0930037 0.0930037 0.439216 1
0.0930037 0.0930037 0.439216 1
0.0930037 0.0930037 0.439216 1
0.0930037 0.0930037 0.439216 1
0.0930037 0.0930037 0.439216 1
0.0930037 0.0930037 0.439216 1
0.0930037 0.0930037 0.439216 1
0.0930037 0.0930037 0.439216 1
0.0930037 0.0930037 0.439216 1
0.0930037 0.0930037 0.439216 1
0.0930037 0.0930037 0.439216 1
0.0930037 0.0930037 0.439216 1
0.0930037 0.0930037 0.439216 1
0.0930037 0.0930037 0.439216 1
0.0930037 0.0930037 0.439216 1
0.0930037 0.0930037 0.439216 1
0.0930037 0.0930037 0.439216 1
0.0930037 0.0930037 0.439216 1
0.0930037 0.0930037 0.439216 1
0.0930037 0.0930037 0.439216 1