# vtk DataFile Version 3.0
Gocad TSurf to VTK
ASCII
DATASET POLYDATA
POINTS 389 float
21610150.000 4580885.000 -1557.500
21610325.000 4580915.000 -1515.000
21610300.000 4580520.000 -1495.000
21609600.000 4580560.000 -1745.000
21610350.000 4581310.000 -1535.000
21610375.000 4581705.000 -1555.000
21610000.000 4581250.000 -1620.000
21609625.000 4580915.000 -1745.000
21609550.000 4581250.000 -1752.500
21609350.000 4580912.500 -1760.000
21609675.000 4581625.000 -1745.000
21609450.000 4581597.500 -1760.000
21610400.000 4582100.000 -1575.000
21609775.000 4582167.500 -1647.500
21609500.000 4581940.000 -1760.000
21609850.000 4582355.000 -1550.000
21609625.000 4582137.500 -1658.750
21610375.000 4582267.500 -1498.750
21610100.000 4582572.500 -1410.000
21610375.000 4582267.500 -1498.750
21610350.000 4582435.000 -1422.500
21610325.000 4582602.500 -1346.250
21610300.000 4582770.000 -1270.000
21610000.000 4582730.000 -1355.000
21609875.000 4582532.500 -1456.250
21609725.000 4582505.000 -1431.250
21609450.000 4582280.000 -1507.500
21609175.000 4582055.000 -1583.750
21608900.000 4581830.000 -1660.000
21609000.000 4581515.000 -1685.000
21608650.000 4581532.500 -1670.000
21609100.000 4581200.000 -1710.000
21608750.000 4581220.000 -1695.000
21608675.000 4580915.000 -1712.500
21608500.000 4581230.000 -1680.000
21608550.000 4581537.500 -1705.000
21608150.000 4580937.500 -1690.000
21608600.000 4580610.000 -1730.000
21608200.000 4581245.000 -1750.000
21607850.000 4580952.500 -1795.000
21607900.000 4580640.000 -1700.000
21607500.000 4580660.000 -1840.000
21608100.000 4580630.000 -1700.000
21607975.000 4580482.500 -1766.250
21608400.000 4580310.000 -1847.500
21608600.000 4580445.000 -1788.750
21608050.000 4580325.000 -1832.500
21608300.000 4580160.000 -1906.250
21607850.000 4580335.000 -1902.500
21608025.000 4580172.500 -1933.750
21607675.000 4580497.500 -1871.250
21607350.000 4580405.000 -2030.000
21607425.000 4580532.500 -1935.000
21607275.000 4580277.500 -2125.000
21607200.000 4580150.000 -2220.000
21608200.000 4580010.000 -1965.000
21608175.000 4580165.000 -1898.750
21607350.000 4579960.000 -2122.500
21608000.000 4579700.000 -1897.500
21607125.000 4580027.500 -2205.000
21607050.000 4579905.000 -2190.000
21607500.000 4579770.000 -2025.000
21606975.000 4579782.500 -2175.000
21606900.000 4579660.000 -2160.000
21607550.000 4579247.500 -1902.500
21608050.000 4579507.500 -1852.500
21606875.000 4579450.000 -2150.000
21607300.000 4579105.000 -1975.000
21607800.000 4578820.000 -1796.250
21606850.000 4579240.000 -2140.000
21606825.000 4579030.000 -2130.000
21606800.000 4578820.000 -2120.000
21607800.000 4578630.000 -1785.000
21607600.000 4578335.000 -1617.500
21607925.000 4578452.500 -1701.250
21606850.000 4578637.500 -1952.500
21607000.000 4578090.000 -1450.000
21606700.000 4578660.000 -2018.750
21606600.000 4578500.000 -1917.500
21606500.000 4578340.000 -1816.250
21606400.000 4578180.000 -1715.000
21606700.000 4577967.500 -1558.750
21607325.000 4577865.000 -1408.750
21606250.000 4578035.000 -1757.500
21606100.000 4577890.000 -1800.000
21605950.000 4577745.000 -1842.500
21605800.000 4577600.000 -1885.000
21607975.000 4577415.000 -1326.250
21608300.000 4577190.000 -1285.000
21607025.000 4576597.500 -1630.000
21608300.000 4577372.500 -1326.250
21608300.000 4577555.000 -1367.500
21608400.000 4577357.500 -1305.000
21608625.000 4577330.000 -1228.750
21608500.000 4577525.000 -1325.000
21610100.000 4576900.000 -545.000
21609975.000 4577112.500 -673.750
21609100.000 4576600.000 -887.500
21610125.000 4576720.000 -440.000
21608150.000 4576522.500 -1243.750
21609200.000 4575970.000 -530.000
21607475.000 4576192.500 -1407.500
21606650.000 4576245.000 -1647.500
21607025.000 4575917.500 -1372.500
21608200.000 4575760.000 -935.000
21606700.000 4576090.000 -1550.000
21606750.000 4575935.000 -1452.500
21606800.000 4575780.000 -1355.000
21606600.000 4575942.500 -1487.500
21606400.000 4576105.000 -1620.000
21605550.000 4575950.000 -2008.750
21606200.000 4576267.500 -1752.500
21605700.000 4576110.000 -1967.500
21606000.000 4576430.000 -1885.000
21606400.000 4576700.000 -1780.000
21605300.000 4576480.000 -2275.000
21605325.000 4576307.500 -2218.750
21605425.000 4576760.000 -2177.500
21605950.000 4576722.500 -1885.000
21605550.000 4577040.000 -2080.000
21606200.000 4577000.000 -1815.000
21605900.000 4577015.000 -1885.000
21606000.000 4577300.000 -1850.000
21605850.000 4577307.500 -1885.000
21605675.000 4577320.000 -1982.500
21605350.000 4576135.000 -2162.500
21605375.000 4575962.500 -2106.250
21605400.000 4575790.000 -2050.000
21606450.000 4575420.000 -1765.000
21607925.000 4575307.500 -1415.000
21605575.000 4575607.500 -2081.250
21605750.000 4575425.000 -2112.500
21605425.000 4575600.000 -2130.000
21605450.000 4575410.000 -2210.000
21605475.000 4575220.000 -2290.000
21605500.000 4575030.000 -2370.000
21606100.000 4575060.000 -2175.000
21605900.000 4574705.000 -2260.000
21606250.000 4574907.500 -2137.500
21605550.000 4574860.000 -2363.750
21605600.000 4574690.000 -2357.500
21605650.000 4574520.000 -2351.250
21605700.000 4574350.000 -2345.000
21606850.000 4574297.500 -1982.500
21607100.000 4574625.000 -1877.500
21605875.000 4574180.000 -2333.750
21606550.000 4574060.000 -2162.500
21605750.000 4574162.500 -2393.750
21605800.000 4573975.000 -2442.500
21605850.000 4573787.500 -2491.250
21606225.000 4573840.000 -2311.250
21605900.000 4573600.000 -2540.000
21606075.000 4573460.000 -2337.500
21606250.000 4573320.000 -2135.000
21606500.000 4573355.000 -2015.000
21607125.000 4573640.000 -1823.750
21606425.000 4573180.000 -1932.500
21606550.000 4573197.500 -1872.500
21606775.000 4573240.000 -1761.250
21606600.000 4573040.000 -1730.000
21607900.000 4573400.000 -1160.000
21607750.000 4573510.000 -1333.750
21607600.000 4573122.500 -1306.250
21608050.000 4573120.000 -1102.500
21606625.000 4572852.500 -1733.750
21607300.000 4572845.000 -1452.500
21606650.000 4572665.000 -1737.500
21606675.000 4572477.500 -1741.250
21606700.000 4572290.000 -1745.000
21607875.000 4572545.000 -1243.750
21606750.000 4572132.500 -1768.750
21607550.000 4572250.000 -1442.500
21608950.000 4572577.500 -932.500
21606800.000 4571975.000 -1792.500
21606850.000 4571817.500 -1816.250
21606900.000 4571660.000 -1840.000
21609200.000 4572490.000 -895.000
21608850.000 4572180.000 -1045.000
21609100.000 4572267.500 -967.500
21607125.000 4571557.500 -1753.750
21608150.000 4571560.000 -1345.000
21606900.000 4571477.500 -1822.500
21606900.000 4571295.000 -1805.000
21606900.000 4571112.500 -1787.500
21607575.000 4571352.500 -1581.250
21606900.000 4570930.000 -1770.000
21607500.000 4570910.000 -1597.500
21606975.000 4570840.000 -1752.500
21607050.000 4570750.000 -1735.000
21607125.000 4570660.000 -1717.500
21607200.000 4570570.000 -1700.000
21608625.000 4571055.000 -1086.250
21608650.000 4570762.500 -1053.750
21608875.000 4571142.500 -1008.750
21607375.000 4570447.500 -1616.250
21608400.000 4570535.000 -1157.500
21607250.000 4570415.000 -1682.500
21607300.000 4570260.000 -1665.000
21607350.000 4570105.000 -1647.500
21607725.000 4570202.500 -1448.750
21607400.000 4569950.000 -1630.000
21607900.000 4570080.000 -1365.000
21607500.000 4569812.500 -1546.250
21607875.000 4569910.000 -1347.500
21608250.000 4570002.500 -1222.500
21607600.000 4569675.000 -1462.500
21607700.000 4569537.500 -1378.750
21607825.000 4569570.000 -1312.500
21607800.000 4569400.000 -1295.000
21609650.000 4570002.500 -631.250
21610350.000 4570467.500 -303.750
21608950.000 4569375.000 -1032.500
21610200.000 4569507.500 -712.500
21608000.000 4569295.000 -1288.750
21608200.000 4569190.000 -1282.500
21607900.000 4569275.000 -1316.250
21608000.000 4569150.000 -1337.500
21608100.000 4569025.000 -1358.750
21608200.000 4568900.000 -1380.000
21608600.000 4568980.000 -1270.000
21608350.000 4568772.500 -1275.000
21608650.000 4568832.500 -1192.500
21608775.000 4568867.500 -1155.000
21608500.000 4568645.000 -1170.000
21608700.000 4568685.000 -1115.000
21608650.000 4568517.500 -1065.000
21608750.000 4568537.500 -1037.500
21608950.000 4568755.000 -1040.000
21608800.000 4568390.000 -960.000
21609300.000 4568530.000 -810.000
21609600.000 4568752.500 -778.750
21609900.000 4568975.000 -747.500
21610100.000 4568780.000 -560.000
21610175.000 4568940.000 -591.250
21610300.000 4569100.000 -622.500
21610175.000 4568940.000 -591.250
21610250.000 4569100.000 -622.500
21610325.000 4569260.000 -653.750
21610400.000 4569260.000 -653.750
21610400.000 4569420.000 -685.000
21610200.000 4569197.500 -716.250
21610500.000 4569420.000 -685.000
21610525.000 4569585.000 -607.500
21610500.000 4569750.000 -530.000
21610450.000 4569585.000 -607.500
21610575.000 4569915.000 -452.500
21610600.000 4570080.000 -375.000
21610550.000 4569915.000 -452.500
21610625.000 4570235.000 -316.250
21610650.000 4570390.000 -257.500
21610675.000 4570545.000 -198.750
21610700.000 4570700.000 -140.000
21610250.000 4570772.500 -342.500
21610725.000 4570885.000 -136.250
21610750.000 4571070.000 -132.500
21610775.000 4571255.000 -128.750
21610800.000 4571440.000 -125.000
21609125.000 4571235.000 -918.750
21610550.000 4571572.500 -300.000
21609575.000 4571725.000 -856.250
21610775.000 4571655.000 -191.250
21610750.000 4571870.000 -257.500
21610725.000 4572085.000 -323.750
21610700.000 4572300.000 -390.000
21610025.000 4572240.000 -650.000
21609350.000 4572360.000 -877.500
21610700.000 4572487.500 -323.750
21610475.000 4572780.000 -300.000
21610700.000 4572862.500 -191.250
21610700.000 4573050.000 -125.000
21609575.000 4572800.000 -650.000
21610700.000 4573220.000 -72.500
21609950.000 4573110.000 -405.000
21610700.000 4573220.000 -72.500
21610700.000 4573390.000 -20.000
21610700.000 4573560.000 32.500
21610700.000 4573730.000 85.000
21609400.000 4573480.000 -522.500
21610675.000 4573827.500 63.750
21610650.000 4573925.000 42.500
21610625.000 4574022.500 21.250
21610600.000 4574120.000 0.000
21610050.000 4574100.000 -352.500
21608150.000 4573720.000 -1285.000
21610625.000 4574200.000 -13.750
[...]
POINT_DATA 389
COLOR_SCALARS GocadColor 4
0.819608 0.698116 0.549615 1
0.819608 0.698116 0.549615 1
0.819608 0.698116 0.549615 1
0.819608 0.698116 0.549615 1
0.819608 0.698116 0.549615 1
0.819608 0.698116 0.549615 1
0.819608 0.698116 0.549615 1
0.819608 0.698116 0.549615 1
0.819608 0.698116 0.549615 1
0.819608 0.698116 0.549615 1
0.819608 0.698116 0.549615 1
0.819608 0.698116 0.549615 1
0.819608 0.698116 0.549615 1
0.819608 0.698116 0.549615 1
0.819608 0.698116 0.549615 1
0.819608 0.698116 0.549615 1
0.819608 0.698116 0.549615 1
0.819608 0.698116 0.549615 1
0.819608 0.698116 0.549615 1
0.819608 0.698116 0.549615 1
0.819608 0.698116 0.549615 1
0.819608 0.698116 0.549615 1
0.819608 0.698116 0.549615 1
0.819608 0.698116 0.549615 1
0.819608 0.698116 0.549615 1
0.819608 0.698116 0.549615 1
0.819608 0.698116 0.549615 1
0.819608 0.698116 0.549615 1
0.819608 0.698116 0.549615 1
0.819608 0.698116 0.549615 1
0.819608 0.698116 0.549615 1
0.819608 0.698116 0.549615 1
0.819608 0.698116 0.549615 1
0.819608 0.698116 0.549615 1
0.819608 0.698116 0.549615 1
0.819608 0.698116 0.549615 1
0.819608 0.698116 0.549615 1
0.819608 0.698116 0.549615 1
0.819608 0.698116 0.549615 1
0.819608 0.698116 0.549615 1
0.819608 0.698116 0.549615 1
0.819608 0.698116 0.549615 1
0.819608 0.698116 0.549615 1
0.819608 0.698116 0.549615 1
0.819608 0.698116 0.549615 1
0.819608 0.698116 0.549615 1
0.819608 0.698116 0.549615 1
0.819608 0.698116 0.549615 1
0.819608 0.698116 0.549615 1
0.819608 0.698116 0.549615 1
0.819608 0.698116 0.549615 1
0.819608 0.698116 0.549615 1
0.819608 0.698116 0.549615 1
0.819608 0.698116 0.549615 1
0.819608 0.698116 0.549615 1
0.819608 0.698116 0.549615 1
0.819608 0.698116 0.549615 1
0.819608 0.698116 0.549615 1
0.819608 0.698116 0.549615 1
0.819608 0.698116 0.549615 1
0.819608 0.698116 0.549615 1
0.819608 0.698116 0.549615 1
0.819608 0.698116 0.549615 1
0.819608 0.698116 0.549615 1
0.819608 0.698116 0.549615 1
0.819608 0.698116 0.549615 1
0.819608 0.698116 0.549615 1
0.819608 0.698116 0.549615 1
0.819608 0.698116 0.549615 1
0.819608 0.698116 0.549615 1
0.819608 0.698116 0.549615 1
0.819608 0.698116 0.549615 1
0.819608 0.698116 0.549615 1
0.819608 0.698116 0.549615 1
0.819608 0.698116 0.549615 1
0.819608 0.698116 0.549615 1
0.819608 0.698116 0.549615 1
0.819608 0.698116 0.549615 1
0.819608 0.698116 0.549615 1
0.819608 0.698116 0.549615 1
0.819608 0.698116 0.549615 1
0.819608 0.698116 0.549615 1
0.819608 0.698116 0.549615 1
0.819608 0.698116 0.549615 1
0.819608 0.698116 0.549615 1
0.819608 0.698116 0.549615 1
0.819608 0.698116 0.549615 1
0.819608 0.698116 0.549615 1
0.819608 0.698116 0.549615 1
0.819608 0.698116 0.549615 1
0.819608 0.698116 0.549615 1
0.819608 0.698116 0.549615 1
0.819608 0.698116 0.549615 1
0.819608 0.698116 0.549615 1
0.819608 0.698116 0.549615 1
0.819608 0.698116 0.549615 1
0.819608 0.698116 0.549615 1
0.819608 0.698116 0.549615 1
0.819608 0.698116 0.549615 1
0.819608 0.698116 0.549615 1
0.819608 0.698116 0.549615 1
0.819608 0.698116 0.549615 1
0.819608 0.698116 0.549615 1
0.819608 0.698116 0.549615 1
0.819608 0.698116 0.549615 1
0.819608 0.698116 0.549615 1
0.819608 0.698116 0.549615 1
0.819608 0.698116 0.549615 1
0.819608 0.698116 0.549615 1
0.819608 0.698116 0.549615 1
0.819608 0.698116 0.549615 1
0.819608 0.698116 0.549615 1
0.819608 0.698116 0.549615 1
0.819608 0.698116 0.549615 1
0.819608 0.698116 0.549615 1
0.819608 0.698116 0.549615 1
0.819608 0.698116 0.549615 1
0.819608 0.698116 0.549615 1
0.819608 0.698116 0.549615 1
0.819608 0.698116 0.549615 1
0.819608 0.698116 0.549615 1
0.819608 0.698116 0.549615 1
0.819608 0.698116 0.549615 1
0.819608 0.698116 0.549615 1
0.819608 0.698116 0.549615 1
0.819608 0.698116 0.549615 1
0.819608 0.698116 0.549615 1
0.819608 0.698116 0.549615 1
0.819608 0.698116 0.549615 1
0.819608 0.698116 0.549615 1
0.819608 0.698116 0.549615 1
0.819608 0.698116 0.549615 1
0.819608 0.698116 0.549615 1
0.819608 0.698116 0.549615 1
0.819608 0.698116 0.549615 1
0.819608 0.698116 0.549615 1
0.819608 0.698116 0.549615 1
0.819608 0.698116 0.549615 1
0.819608 0.698116 0.549615 1
0.819608 0.698116 0.549615 1
0.819608 0.698116 0.549615 1
0.819608 0.698116 0.549615 1
0.819608 0.698116 0.549615 1
0.819608 0.698116 0.549615 1
0.819608 0.698116 0.549615 1
0.819608 0.698116 0.549615 1
0.819608 0.698116 0.549615 1
0.819608 0.698116 0.549615 1
0.819608 0.698116 0.549615 1
0.819608 0.698116 0.549615 1
0.819608 0.698116 0.549615 1
0.819608 0.698116 0.549615 1
0.819608 0.698116 0.549615 1
0.819608 0.698116 0.549615 1
0.819608 0.698116 0.549615 1
0.819608 0.698116 0.549615 1
0.819608 0.698116 0.549615 1
0.819608 0.698116 0.549615 1
0.819608 0.698116 0.549615 1
0.819608 0.698116 0.549615 1
0.819608 0.698116 0.549615 1
0.819608 0.698116 0.549615 1
0.819608 0.698116 0.549615 1
0.819608 0.698116 0.549615 1
0.819608 0.698116 0.549615 1
0.819608 0.698116 0.549615 1
0.819608 0.698116 0.549615 1
0.819608 0.698116 0.549615 1
0.819608 0.698116 0.549615 1
0.819608 0.698116 0.549615 1
0.819608 0.698116 0.549615 1
0.819608 0.698116 0.549615 1
0.819608 0.698116 0.549615 1
0.819608 0.698116 0.549615 1
0.819608 0.698116 0.549615 1
0.819608 0.698116 0.549615 1
0.819608 0.698116 0.549615 1
0.819608 0.698116 0.549615 1
0.819608 0.698116 0.549615 1
0.819608 0.698116 0.549615 1
0.819608 0.698116 0.549615 1
0.819608 0.698116 0.549615 1
0.819608 0.698116 0.549615 1
0.819608 0.698116 0.549615 1
0.819608 0.698116 0.549615 1
0.819608 0.698116 0.549615 1
0.819608 0.698116 0.549615 1
0.819608 0.698116 0.549615 1
0.819608 0.698116 0.549615 1
0.819608 0.698116 0.549615 1
0.819608 0.698116 0.549615 1
0.819608 0.698116 0.549615 1
0.819608 0.698116 0.549615 1
0.819608 0.698116 0.549615 1
0.819608 0.698116 0.549615 1
0.819608 0.698116 0.549615 1
0.819608 0.698116 0.549615 1
0.819608 0.698116 0.549615 1
0.819608 0.698116 0.549615 1
0.819608 0.698116 0.549615 1
0.819608 0.698116 0.549615 1
0.819608 0.698116 0.549615 1
0.819608 0.698116 0.549615 1
0.819608 0.698116 0.549615 1
0.819608 0.698116 0.549615 1
0.819608 0.698116 0.549615 1
0.819608 0.698116 0.549615 1
0.819608 0.698116 0.549615 1
0.819608 0.698116 0.549615 1
0.819608 0.698116 0.549615 1
0.819608 0.698116 0.549615 1
0.819608 0.698116 0.549615 1
0.819608 0.698116 0.549615 1
0.819608 0.698116 0.549615 1
0.819608 0.698116 0.549615 1
0.819608 0.698116 0.549615 1
0.819608 0.698116 0.549615 1
0.819608 0.698116 0.549615 1
0.819608 0.698116 0.549615 1
0.819608 0.698116 0.549615 1
0.819608 0.698116 0.549615 1
0.819608 0.698116 0.549615 1
0.819608 0.698116 0.549615 1
0.819608 0.698116 0.549615 1
0.819608 0.698116 0.549615 1
0.819608 0.698116 0.549615 1
0.819608 0.698116 0.549615 1
0.819608 0.698116 0.549615 1
0.819608 0.698116 0.549615 1
0.819608 0.698116 0.549615 1
0.819608 0.698116 0.549615 1
0.819608 0.698116 0.549615 1
0.819608 0.698116 0.549615 1
0.819608 0.698116 0.549615 1
0.819608 0.698116 0.549615 1
0.819608 0.698116 0.549615 1
0.819608 0.698116 0.549615 1
0.819608 0.698116 0.549615 1
0.819608 0.698116 0.549615 1
0.819608 0.698116 0.549615 1
0.819608 0.698116 0.549615 1
0.819608 0.698116 0.549615 1
0.819608 0.698116 0.549615 1
0.819608 0.698116 0.549615 1
0.819608 0.698116 0.549615 1
0.819608 0.698116 0.549615 1
0.819608 0.698116 0.549615 1
0.819608 0.698116 0.549615 1
0.819608 0.698116 0.549615 1
0.819608 0.698116 0.549615 1
0.819608 0.698116 0.549615 1
0.819608 0.698116 0.549615 1
0.819608 0.698116 0.549615 1
0.819608 0.698116 0.549615 1
0.819608 0.698116 0.549615 1
0.819608 0.698116 0.549615 1
0.819608 0.698116 0.549615 1
0.819608 0.698116 0.549615 1
0.819608 0.698116 0.549615 1
0.819608 0.698116 0.549615 1
0.819608 0.698116 0.549615 1
0.819608 0.698116 0.549615 1
0.819608 0.698116 0.549615 1
0.819608 0.698116 0.549615 1
0.819608 0.698116 0.549615 1
0.819608 0.698116 0.549615 1
0.819608 0.698116 0.549615 1
0.819608 0.698116 0.549615 1
0.819608 0.698116 0.549615 1
0.819608 0.698116 0.549615 1
0.819608 0.698116 0.549615 1
0.819608 0.698116 0.549615 1
0.819608 0.698116 0.549615 1
0.819608 0.698116 0.549615 1
0.819608 0.698116 0.549615 1
0.819608 0.698116 0.549615 1
0.819608 0.698116 0.549615 1
0.819608 0.698116 0.549615 1
0.819608 0.698116 0.549615 1
0.819608 0.698116 0.549615 1
0.819608 0.698116 0.549615 1
0.819608 0.698116 0.549615 1
0.819608 0.698116 0.549615 1
0.819608 0.698116 0.549615 1
0.819608 0.698116 0.549615 1
0.819608 0.698116 0.549615 1
0.819608 0.698116 0.549615 1
0.819608 0.698116 0.549615 1
0.819608 0.698116 0.549615 1
0.819608 0.698116 0.549615 1
0.819608 0.698116 0.549615 1
0.819608 0.698116 0.549615 1
0.819608 0.698116 0.549615 1
0.819608 0.698116 0.549615 1
0.819608 0.698116 0.549615 1
0.819608 0.698116 0.549615 1
0.819608 0.698116 0.549615 1
0.819608 0.698116 0.549615 1
0.819608 0.698116 0.549615 1
0.819608 0.698116 0.549615 1
0.819608 0.698116 0.549615 1
0.819608 0.698116 0.549615 1
0.819608 0.698116 0.549615 1
0.819608 0.698116 0.549615 1
0.819608 0.698116 0.549615 1
0.819608 0.698116 0.549615 1
0.819608 0.698116 0.549615 1
0.819608 0.698116 0.549615 1
0.819608 0.698116 0.549615 1
0.819608 0.698116 0.549615 1
0.819608 0.698116 0.549615 1
0.819608 0.698116 0.549615 1
0.819608 0.698116 0.549615 1
0.819608 0.698116 0.549615 1
0.819608 0.698116 0.549615 1
0.819608 0.698116 0.549615 1
0.819608 0.698116 0.549615 1
0.819608 0.698116 0.549615 1
0.819608 0.698116 0.549615 1
0.819608 0.698116 0.549615 1
0.819608 0.698116 0.549615 1
0.819608 0.698116 0.549615 1
0.819608 0.698116 0.549615 1
0.819608 0.698116 0.549615 1
0.819608 0.698116 0.549615 1
0.819608 0.698116 0.549615 1
0.819608 0.698116 0.549615 1
0.819608 0.698116 0.549615 1
0.819608 0.698116 0.549615 1
0.819608 0.698116 0.549615 1
0.819608 0.698116 0.549615 1
0.819608 0.698116 0.549615 1
0.819608 0.698116 0.549615 1
0.819608 0.698116 0.549615 1
0.819608 0.698116 0.549615 1
0.819608 0.698116 0.549615 1
0.819608 0.698116 0.549615 1
0.819608 0.698116 0.549615 1
0.819608 0.698116 0.549615 1
0.819608 0.698116 0.549615 1
0.819608 0.698116 0.549615 1
0.819608 0.698116 0.549615 1
0.819608 0.698116 0.549615 1
0.819608 0.698116 0.549615 1
0.819608 0.698116 0.549615 1
0.819608 0.698116 0.549615 1
0.819608 0.698116 0.549615 1
0.819608 0.698116 0.549615 1
0.819608 0.698116 0.549615 1
0.819608 0.698116 0.549615 1
0.819608 0.698116 0.549615 1
0.819608 0.698116 0.549615 1
0.819608 0.698116 0.549615 1
0.819608 0.698116 0.549615 1
0.819608 0.698116 0.549615 1
0.819608 0.698116 0.549615 1
0.819608 0.698116 0.549615 1
0.819608 0.698116 0.549615 1
0.819608 0.698116 0.549615 1
0.819608 0.698116 0.549615 1
0.819608 0.698116 0.549615 1
0.819608 0.698116 0.549615 1
0.819608 0.698116 0.549615 1
0.819608 0.698116 0.549615 1
0.819608 0.698116 0.549615 1
0.819608 0.698116 0.549615 1
0.819608 0.698116 0.549615 1
0.819608 0.698116 0.549615 1
0.819608 0.698116 0.549615 1
0.819608 0.698116 0.549615 1
0.819608 0.698116 0.549615 1
0.819608 0.698116 0.549615 1
0.819608 0.698116 0.549615 1
0.819608 0.698116 0.549615 1
0.819608 0.698116 0.549615 1
0.819608 0.698116 0.549615 1
0.819608 0.698116 0.549615 1
0.819608 0.698116 0.549615 1
0.819608 0.698116 0.549615 1
0.819608 0.698116 0.549615 1
0.819608 0.698116 0.549615 1
0.819608 0.698116 0.549615 1
0.819608 0.698116 0.549615 1
0.819608 0.698116 0.549615 1
0.819608 0.698116 0.549615 1
0.819608 0.698116 0.549615 1
0.819608 0.698116 0.549615 1
0.819608 0.698116 0.549615 1
0.819608 0.698116 0.549615 1

