# vtk DataFile Version 3.0
Gocad TSurf to VTK
ASCII
DATASET POLYDATA
POINTS 162 float
21568600.000 4555977.500 -223.750
21568450.000 4556090.000 -235.000
21568675.000 4556055.000 -375.000
21568575.000 4556317.500 -445.000
21568950.000 4555877.500 -280.000
21568375.000 4556075.000 -137.500
21568100.000 4556255.000 -97.500
21568575.000 4555802.500 -108.750
21568350.000 4555900.000 -22.500
21568400.000 4555740.000 -5.000
21568125.000 4555967.500 67.500
21567309.953 4556377.176 385.116
21567950.000 4555875.000 175.000
21567375.000 4556207.500 390.000
21568450.000 4555580.000 12.500
21568550.000 4555675.000 -62.500
21568500.000 4555420.000 30.000
21567600.000 4555690.000 390.000
21568525.000 4555547.500 -16.250
21568600.000 4555530.000 -30.000
21568900.000 4555340.000 15.000
21568900.000 4555470.000 -41.250
21568725.000 4555052.500 82.500
21568350.000 4555340.000 137.500
21568850.000 4555135.000 57.500
21568825.000 4555032.500 78.750
21569300.000 4555220.000 100.000
21569150.000 4555055.000 65.000
21569100.000 4555520.000 -27.500
21569300.000 4555340.000 57.500
21569300.000 4555460.000 15.000
21569350.000 4555327.500 82.500
21569400.000 4555435.000 65.000
21569450.000 4555542.500 47.500
21569300.000 4555580.000 -27.500
21569200.000 4555610.000 -48.750
21569500.000 4555650.000 30.000
21569300.000 4555700.000 -70.000
21569550.000 4555652.500 -36.250
21569500.000 4555680.000 -152.500
21569625.000 4555620.000 50.000
21569650.000 4555657.500 -168.750
21569750.000 4555590.000 70.000
21569875.000 4555560.000 90.000
21569775.000 4555782.500 -133.750
21570000.000 4555530.000 110.000
21570000.000 4555685.000 125.000
21569850.000 4555905.000 -32.500
21569625.000 4555862.500 -270.000
21570000.000 4555840.000 140.000
21570000.000 4555995.000 155.000
21570000.000 4556150.000 170.000
21569475.000 4556267.500 -340.000
21569550.000 4556785.000 -257.500
21570000.000 4556352.500 120.000
21570000.000 4556757.500 20.000
21570025.000 4556340.000 137.500
21570050.000 4556530.000 105.000
21570075.000 4556720.000 72.500
21570100.000 4556910.000 40.000
21570000.000 4556960.000 -30.000
21570100.000 4557007.500 5.000
21569775.000 4557172.500 -136.250
21569625.000 4556942.500 -198.750
21570000.000 4557282.500 -101.250
21569850.000 4557245.000 -132.500
21570000.000 4557390.000 -125.000
21570400.000 4557150.000 110.000
21569925.000 4557317.500 -128.750
21569775.000 4557407.500 -170.000
21569750.000 4557305.000 -160.000
21569800.000 4557510.000 -180.000
21569725.000 4557437.500 -176.250
21569650.000 4557365.000 -172.500
21569575.000 4557565.000 -165.000
21569550.000 4557450.000 -165.000
21569600.000 4557680.000 -165.000
21569475.000 4557617.500 -172.500
21569450.000 4557495.000 -180.000
21569200.000 4557910.000 -40.000
21569175.000 4557790.000 -78.750
21569125.000 4557550.000 -156.250
21568950.000 4557770.000 -62.500
21568325.000 4558305.000 323.750
21568575.000 4557855.000 51.250
21568231.516 4558473.285 425.656
21568143.406 4558399.430 412.732
21568260.547 4558492.461 429.726
21568131.563 4558389.500 410.994
21568039.313 4558331.664 406.598
21567995.859 4558304.414 404.527
21567866.594 4558223.367 398.367
21567732.250 4558139.129 391.964
21568525.000 4557507.500 -143.750
21567720.531 4558134.008 391.340
21568950.000 4557300.000 -268.750
21568600.000 4557270.000 -287.500
21569375.000 4557402.500 -187.500
21569075.000 4557235.000 -278.750
21569525.000 4557335.000 -165.000
21569500.000 4557220.000 -165.000
21569575.000 4557292.500 -168.750
21569225.000 4557145.000 -278.750
21569475.000 4557032.500 -217.500
21569250.000 4556935.000 -347.500
21569450.000 4556845.000 -270.000
21568900.000 4557105.000 -362.500
21568800.000 4557170.000 -342.500
21568650.000 4557040.000 -416.250
21568525.000 4556712.500 -475.000
21568175.000 4557262.500 -261.250
21567975.000 4556967.500 -278.750
21567775.000 4557897.500 223.750
21567400.000 4557045.000 0.000
21567706.000 4558129.805 390.502
21567502.547 4557994.859 381.024
21567175.000 4557737.500 341.250
21567000.000 4557600.000 320.000
21566850.000 4557112.500 320.000
21566800.000 4556950.000 320.000
21567900.000 4556450.000 -155.000
21567750.000 4556432.500 -18.750
21566925.000 4556807.500 337.500
21567050.000 4556665.000 355.000
21567175.000 4556522.500 372.500
21567226.297 4556464.023 379.681
21567227.813 4556462.492 379.723
21567305.641 4556380.656 384.880
21568200.000 4556680.000 -322.500
21569725.000 4557202.500 -150.000
21570325.000 4557090.000 92.500
21570250.000 4557030.000 75.000
21570175.000 4556970.000 57.500
21569100.000 4555895.000 -416.250
21569400.000 4555800.000 -445.000
21569050.000 4555677.500 -142.500
21568800.000 4555750.000 -150.000
21568900.000 4555600.000 -97.500
21568700.000 4555640.000 -90.000
21569000.000 4555565.000 -90.000
21568975.000 4555002.500 26.250
21569325.000 4555117.500 113.750
21569350.000 4555112.500 127.500
21569350.000 4555015.000 127.500
21569150.000 4554950.000 47.500
21569400.000 4555005.000 155.000
21569375.000 4554912.500 141.250
21569450.000 4554897.500 182.500
21569100.000 4554860.000 30.000
21569400.000 4554810.000 155.000
21569075.000 4554972.500 47.500
21569000.000 4554890.000 30.000
21568800.000 4554930.000 100.000
21567900.000 4555100.000 460.000
21567825.000 4555247.500 442.500
21567750.000 4555395.000 425.000
21567675.000 4555542.500 407.500
21569500.000 4554790.000 210.000
21567525.000 4555862.500 390.000
21567450.000 4556035.000 390.000
21567341.125 4556285.426 390.000
21567312.016 4556373.988 385.301

POLYGONS 257 1028
3 84 91 90
3 148 151 150
3 65 68 64
3 100 103 102
3 64 66 61
3 1 3 2
3 78 97 81
3 110 113 112
3 30 32 29
3 5 0 7
3 16 18 19
3 17 158 12
3 48 47 44
3 122 119 121
3 80 79 77
3 71 66 69
3 1 120 128
3 134 37 133
3 38 36 37
3 0 1 2
3 85 83 86
3 141 26 142
3 58 57 54
3 99 78 75
3 26 27 24
3 106 98 104
3 148 150 144
3 55 54 53
3 105 63 53
3 135 35 28
3 95 96 93
3 22 152 23
3 76 71 74
3 102 98 97
3 146 144 143
3 106 107 95
3 18 15 19
3 109 108 106
3 11 5 10
3 127 126 121
3 34 33 30
3 93 112 114
3 20 24 22
3 112 116 115
3 103 100 62
3 54 57 56
3 62 129 65
3 4 136 7
3 63 103 62
3 134 44 39
3 74 72 75
3 93 96 110
3 84 82 93
3 143 144 27
3 103 105 102
3 74 78 77
3 0 4 7
3 131 132 61
3 74 75 78
3 137 139 21
3 20 21 28
3 127 121 5
3 41 43 42
3 3 109 106
3 15 7 138
3 84 83 82
3 30 28 35
3 0 5 1
3 135 137 136
3 70 69 68
3 93 94 92
3 14 15 18
3 54 51 53
3 15 138 19
3 141 143 27
3 69 66 68
3 93 110 112
3 139 135 28
3 158 159 12
3 133 2 3
3 110 96 109
3 111 113 110
3 137 138 136
3 79 76 77
3 51 52 53
3 82 95 93
3 81 82 80
3 126 125 121
3 83 84 89
3 50 49 47
3 39 38 37
3 43 41 44
3 119 120 121
3 68 66 64
3 3 1 128
3 152 153 23
3 14 16 12
3 4 2 133
3 72 73 75
3 154 155 23
3 135 4 133
3 69 73 72
3 123 122 121
3 151 140 150
3 137 135 139
3 107 108 96
3 156 17 23
3 84 93 92
3 7 136 138
3 37 35 135
3 124 123 121
3 108 107 106
3 129 70 65
3 34 36 33
3 22 24 25
3 55 59 58
3 76 74 77
3 146 143 145
3 46 44 47
3 55 58 54
3 26 29 31
3 16 14 18
3 20 26 24
3 13 10 12
3 96 95 107
3 136 4 135
3 99 97 78
3 3 128 109
3 111 128 120
3 52 51 47
3 89 84 90
3 79 83 85
3 120 119 113
3 21 139 28
3 113 117 112
3 91 84 92
3 86 83 88
3 60 62 64
3 65 70 68
3 70 73 69
3 80 77 81
3 29 28 30
3 30 35 34
3 37 135 133
3 148 144 146
3 52 48 134
3 125 124 121
3 9 15 14
3 81 97 95
3 11 127 5
3 161 10 160
3 119 118 113
3 38 39 41
3 55 63 62
3 61 60 64
3 30 33 32
3 21 138 137
3 54 56 51
3 20 16 19
3 134 48 44
3 17 16 23
3 83 79 82
3 100 101 129
3 52 134 133
3 55 60 59
3 114 112 115
3 83 89 88
3 155 156 23
3 51 50 47
3 75 73 99
3 141 27 26
3 121 6 5
3 53 52 3
3 29 26 28
3 152 25 140
3 130 131 61
3 1 6 120
3 100 97 99
3 20 22 16
3 27 140 24
3 140 27 150
3 14 12 9
3 9 12 10
3 101 73 70
3 20 19 21
3 3 52 133
3 117 116 112
3 143 141 142
3 10 13 160
3 67 130 61
3 26 20 28
3 0 2 4
3 157 149 147
3 99 73 101
3 46 47 49
3 97 98 95
3 66 67 61
3 82 81 95
3 128 111 109
3 117 113 118
3 42 40 41
3 53 63 55
3 45 43 44
3 36 38 40
3 71 69 72
3 144 150 27
3 44 41 39
3 159 13 12
3 94 93 114
3 5 6 1
3 9 7 15
3 87 79 85
3 140 25 24
3 145 143 142
3 161 11 10
3 105 104 102
3 22 23 16
3 21 19 138
3 104 3 106
3 16 17 12
3 40 38 41
3 59 60 61
3 100 99 101
3 35 37 34
3 62 65 64
3 149 146 147
3 47 48 52
3 147 146 145
3 152 22 25
3 104 105 53
3 79 80 82
3 111 110 109
3 37 36 34
3 151 152 140
3 45 44 46
3 98 102 104
3 153 154 23
3 8 5 7
3 129 101 70
3 149 148 146
3 98 106 95
3 39 37 134
3 100 129 62
3 6 121 120
3 59 61 132
3 77 78 81
3 8 7 9
3 29 32 31
3 105 103 63
3 113 111 120
3 60 55 62
3 104 53 3
3 9 10 8
3 96 108 109
3 74 71 72
3 8 10 5
3 97 100 102

POINT_DATA 162
COLOR_SCALARS GocadColor 4
0 1 0.48333 1
0 1 0.48333 1
0 1 0.48333 1
0 1 0.48333 1
0 1 0.48333 1
0 1 0.48333 1
0 1 0.48333 1
0 1 0.48333 1
0 1 0.48333 1
0 1 0.48333 1
0 1 0.48333 1
0 1 0.48333 1
0 1 0.48333 1
0 1 0.48333 1
0 1 0.48333 1
0 1 0.48333 1
0 1 0.48333 1
0 1 0.48333 1
0 1 0.48333 1
0 1 0.48333 1
0 1 0.48333 1
0 1 0.48333 1
0 1 0.48333 1
0 1 0.48333 1
0 1 0.48333 1
0 1 0.48333 1
0 1 0.48333 1
0 1 0.48333 1
0 1 0.48333 1
0 1 0.48333 1
0 1 0.48333 1
0 1 0.48333 1
0 1 0.48333 1
0 1 0.48333 1
0 1 0.48333 1
0 1 0.48333 1
0 1 0.48333 1
0 1 0.48333 1
0 1 0.48333 1
0 1 0.48333 1
0 1 0.48333 1
0 1 0.48333 1
0 1 0.48333 1
0 1 0.48333 1
0 1 0.48333 1
0 1 0.48333 1
0 1 0.48333 1
0 1 0.48333 1
0 1 0.48333 1
0 1 0.48333 1
0 1 0.48333 1
0 1 0.48333 1
0 1 0.48333 1
0 1 0.48333 1
0 1 0.48333 1
0 1 0.48333 1
0 1 0.48333 1
0 1 0.48333 1
0 1 0.48333 1
0 1 0.48333 1
0 1 0.48333 1
0 1 0.48333 1
0 1 0.48333 1
0 1 0.48333 1
0 1 0.48333 1
0 1 0.48333 1
0 1 0.48333 1
0 1 0.48333 1
0 1 0.48333 1
0 1 0.48333 1
0 1 0.48333 1
0 1 0.48333 1
0 1 0.48333 1
0 1 0.48333 1
0 1 0.48333 1
0 1 0.48333 1
0 1 0.48333 1
0 1 0.48333 1
0 1 0.48333 1
0 1 0.48333 1
0 1 0.48333 1
0 1 0.48333 1
0 1 0.48333 1
0 1 0.48333 1
0 1 0.48333 1
0 1 0.48333 1
0 1 0.48333 1
0 1 0.48333 1
0 1 0.48333 1
0 1 0.48333 1
0 1 0.48333 1
0 1 0.48333 1
0 1 0.48333 1
0 1 0.48333 1
0 1 0.48333 1
0 1 0.48333 1
0 1 0.48333 1
0 1 0.48333 1
0 1 0.48333 1
0 1 0.48333 1
0 1 0.48333 1
0 1 0.48333 1
0 1 0.48333 1
0 1 0.48333 1
0 1 0.48333 1
0 1 0.48333 1
0 1 0.48333 1
0 1 0.48333 1
0 1 0.48333 1
0 1 0.48333 1
0 1 0.48333 1
0 1 0.48333 1
0 1 0.48333 1
0 1 0.48333 1
0 1 0.48333 1
0 1 0.48333 1
0 1 0.48333 1
0 1 0.48333 1
0 1 0.48333 1
0 1 0.48333 1
0 1 0.48333 1
0 1 0.48333 1
0 1 0.48333 1
0 1 0.48333 1
0 1 0.48333 1
0 1 0.48333 1
0 1 0.48333 1
0 1 0.48333 1
0 1 0.48333 1
0 1 0.48333 1
0 1 0.48333 1
0 1 0.48333 1
0 1 0.48333 1
0 1 0.48333 1
0 1 0.48333 1
0 1 0.48333 1
0 1 0.48333 1
0 1 0.48333 1
0 1 0.48333 1
0 1 0.48333 1
0 1 0.48333 1
0 1 0.48333 1
0 1 0.48333 1
0 1 0.48333 1
0 1 0.48333 1
0 1 0.48333 1
0 1 0.48333 1
0 1 0.48333 1
0 1 0.48333 1
0 1 0.48333 1
0 1 0.48333 1
0 1 0.48333 1
0 1 0.48333 1
0 1 0.48333 1
0 1 0.48333 1
0 1 0.48333 1
0 1 0.48333 1
0 1 0.48333 1
0 1 0.48333 1
0 1 0.48333 1
0 1 0.48333 1
0 1 0.48333 1

