# vtk DataFile Version 3.0
Gocad TSurf to VTK
ASCII
DATASET POLYDATA
POINTS 427 float
21555000.000 4561120.000 375.000
21554800.000 4561040.000 235.000
21554875.000 4561000.000 225.000
21554800.000 4560975.000 225.000
21554950.000 4560960.000 215.000
21554900.000 4561185.000 320.000
21555000.000 4561161.336 384.301
21554800.000 4561197.500 257.500
21554800.000 4561250.000 265.000
21554700.000 4561105.000 222.500
21554675.000 4561027.500 228.750
21554625.000 4561122.500 216.250
21554650.000 4561075.000 222.500
21554575.000 4561105.000 248.750
21554525.000 4560975.000 326.250
21554400.000 4561000.000 315.000
21554700.000 4560980.000 235.000
21554502.188 4560915.695 361.604
21554725.000 4560930.000 225.000
21554675.000 4560910.000 260.000
21554800.000 4560910.000 215.000
21554750.000 4560880.000 215.000
21554900.000 4560940.000 195.000
21554850.000 4560747.500 181.250
21555000.000 4560840.000 155.000
21555000.000 4560650.000 140.000
21555025.000 4560920.000 205.000
21555100.000 4560880.000 210.000
21555100.000 4560770.000 132.500
21555050.000 4561000.000 285.000
21555150.000 4561030.000 362.500
21555075.000 4561075.000 368.750
21555014.563 4561124.367 385.192
21555080.797 4561092.387 386.426
21555100.781 4561082.734 386.798
21555150.000 4561058.969 387.715
21555187.000 4561041.102 388.404
21555226.734 4561027.180 389.035
21555275.000 4560995.000 373.750
21555300.000 4560940.000 350.000
21555258.703 4561030.859 389.235
21555285.922 4561025.566 389.580
21555341.109 4561014.836 390.279
21555347.484 4561013.598 390.359
21555355.813 4561011.977 390.465
21555400.000 4560970.000 375.000
21555400.000 4560927.500 337.500
21555400.000 4561027.652 390.522
21555444.016 4560992.828 333.214
21555401.547 4561033.516 390.414
21555402.250 4561036.168 390.365
21555433.016 4561052.121 361.160
21555475.000 4561057.500 351.250
21555413.813 4561079.961 389.559
21555437.969 4561111.391 389.117
21555450.000 4561115.000 382.500
21555444.906 4561126.703 388.860
21555550.000 4561155.000 342.500
21555465.359 4561159.281 388.362
21555469.844 4561166.223 388.189
21555575.000 4561232.500 353.750
21555600.000 4561180.000 267.500
21555490.938 4561198.879 387.373
21555498.563 4561246.938 386.022
21555541.203 4561301.770 384.698
21555600.000 4561310.000 365.000
21555600.000 4561245.000 316.250
21555448.031 4561404.398 381.109
21555475.000 4561440.000 362.500
21555650.000 4561455.000 320.000
21555439.563 4561415.699 380.726
21555425.406 4561434.590 380.085
21555500.000 4561572.500 345.000
21555415.641 4561526.809 377.335
21555350.000 4561575.000 355.000
21555500.000 4561697.500 365.000
21555319.594 4561541.547 376.289
21555312.297 4561547.973 376.055
21555075.000 4561660.000 343.750
21555150.000 4561765.000 272.500
21555113.828 4561600.207 373.259
21554978.500 4561490.156 375.596
21554800.000 4561640.000 300.000
21554925.000 4561742.500 261.250
21554934.422 4561460.777 376.169
21554750.000 4561360.000 222.500
21554650.000 4561565.000 152.500
21554940.063 4561436.023 376.926
21554939.969 4561430.969 377.073
21554825.000 4561327.500 286.250
21554775.000 4561305.000 243.750
21554948.047 4561322.227 380.293
21554949.531 4561302.332 380.882
21554952.625 4561293.902 381.148
21554961.750 4561268.371 381.755
21554970.219 4561244.684 382.318
21554996.734 4561170.492 384.083
21554625.000 4561245.000 202.500
21554650.000 4561320.000 195.000
21554575.000 4561227.500 192.500
21554550.000 4561285.000 175.000
21554300.000 4561090.000 265.000
21554350.000 4561167.500 233.750
21554325.000 4561045.000 290.000
21554350.000 4561000.000 315.000
21554375.000 4560955.000 340.000
21554450.000 4560955.000 340.000
21554385.266 4560936.512 350.272
21554491.063 4560918.051 360.528
21554422.281 4560930.051 353.860
21554450.000 4561322.500 171.250
21554275.000 4561142.500 268.750
21554250.000 4561195.000 272.500
21554275.000 4561140.000 268.750
21554250.000 4561190.000 272.500
21554225.000 4561240.000 276.250
21554200.000 4561290.000 280.000
21554200.000 4561300.000 280.000
21554175.000 4561337.500 272.500
21554175.000 4561345.000 272.500
21554250.000 4561372.500 241.250
21554150.000 4561385.000 265.000
21554125.000 4561432.500 257.500
21554100.000 4561480.000 250.000
21554350.000 4561517.500 163.750
21554450.000 4561495.000 132.500
21554400.000 4561590.000 125.000
21554125.000 4561535.000 222.500
21554425.000 4561542.500 128.750
21554575.000 4561595.000 128.750
21554525.000 4561465.000 136.250
21554550.000 4561725.000 147.500
21554700.000 4561657.500 232.500
21554500.000 4561790.000 170.000
21554600.000 4561810.000 188.750
21554250.000 4561672.500 136.250
21554400.000 4561920.000 170.000
21554025.000 4561570.000 238.750
21554000.000 4561600.000 235.000
21554050.000 4561540.000 242.500
21554125.000 4561755.000 161.250
21553950.000 4561760.000 230.000
21554050.000 4561810.000 182.500
21553950.000 4561760.000 230.000
21553925.000 4561840.000 227.500
21553975.000 4561865.000 203.750
21553900.000 4561920.000 225.000
21554125.000 4561925.000 162.500
21554150.000 4561850.000 155.000
21554100.000 4562000.000 170.000
21554275.000 4561962.500 162.500
21554300.000 4562050.000 170.000
21554350.000 4561985.000 170.000
21554425.000 4562037.500 211.250
21554450.000 4561955.000 197.500
21554400.000 4562120.000 225.000
21554450.000 4562055.000 221.250
21554500.000 4561990.000 217.500
21554550.000 4561925.000 213.750
21554600.000 4561860.000 210.000
21554625.000 4561825.000 220.000
21554650.000 4561790.000 230.000
21554600.000 4561760.000 167.500
21554675.000 4561755.000 240.000
21554700.000 4561720.000 250.000
21555000.000 4561772.500 275.000
21555300.000 4561825.000 300.000
21555375.000 4561787.500 283.750
21555600.000 4561877.500 325.000
21555300.000 4561750.000 343.750
21555600.000 4561810.000 295.000
21555700.000 4561710.000 300.000
21555900.000 4561930.000 350.000
21555875.000 4561850.000 336.250
21555901.078 4561927.512 350.433
21555909.734 4561865.633 352.750
21555914.750 4561828.797 354.140
21555917.734 4561807.258 354.949
21555825.000 4561690.000 308.750
21555928.266 4561731.309 357.802
21555800.000 4561557.500 297.500
21555933.438 4561696.195 359.097
21555936.891 4561655.035 360.813
21555964.750 4561590.707 361.795
21555950.000 4561545.000 350.000
21555964.891 4561588.160 361.907
21555800.000 4561452.500 302.500
21555985.828 4561529.473 363.140
21555985.859 4561502.063 364.455
21555976.500 4561555.602 362.591
21555971.031 4561570.938 362.268
21555800.000 4561400.000 305.000
21555985.875 4561492.938 364.892
21555650.000 4561262.500 308.750
21555800.000 4561330.000 263.750
21555700.000 4561215.000 252.500
21555900.000 4561295.000 300.000
21555800.000 4561260.000 222.500
21556023.969 4561408.145 366.081
21556043.328 4561389.191 365.524
21555985.922 4561449.578 366.973
21556060.234 4561368.648 365.232
21556025.000 4561270.000 330.000
21556070.594 4561279.117 368.749
21555950.000 4561242.500 297.500
21556000.000 4561200.000 305.000
21556000.000 4561140.000 322.500
21556075.547 4561236.309 370.431
21556076.031 4561232.066 370.598
21556077.516 4561215.504 370.884
21556058.219 4561170.891 373.895
21556054.844 4561156.449 374.595
21556036.625 4561114.363 377.437
21556000.000 4561095.000 355.000
21556027.813 4561100.563 378.643
21555925.000 4561002.500 242.500
21555850.000 4561030.000 182.500
21556000.000 4561036.230 382.985
21555993.250 4561003.480 384.483
21556013.953 4561068.496 380.807
21555990.406 4560991.598 384.226
21555864.406 4560935.297 216.743
21555985.094 4560983.988 384.306
21555875.000 4560985.000 203.750
21555848.313 4560981.473 197.557
21555800.000 4560977.500 192.500
21555816.109 4561073.824 159.186
21555825.000 4560852.500 248.750
21555750.000 4560822.500 196.250
21555900.000 4560860.000 260.000
21555967.156 4560900.180 382.355
21555882.203 4560777.648 290.872
21555800.000 4560755.000 252.500
21555946.469 4560803.578 380.105
21555934.516 4560747.688 378.804
21555948.047 4560807.141 380.132
21555967.813 4560893.906 382.069
21555925.000 4560712.500 375.000
21555891.109 4560698.824 327.936
21555850.000 4560687.500 308.750
21555900.000 4560620.000 365.000
21555750.000 4560735.000 252.500
21555500.000 4560480.000 235.000
21555525.000 4560572.500 211.250
21555850.000 4560572.500 332.500
21555550.000 4560467.500 235.000
21555875.000 4560582.500 357.500
21555850.000 4560545.000 350.000
21555800.000 4560525.000 300.000
21555825.000 4560507.500 342.500
21555800.000 4560470.000 335.000
21555700.000 4560430.000 235.000
21555650.000 4560442.500 235.000
21555800.000 4560395.000 335.000
21555725.000 4560365.000 260.000
21555600.000 4560400.000 170.000
21555800.000 4560320.000 335.000
21555750.000 4560300.000 285.000
21555700.000 4560285.000 242.500
21555800.000 4560245.000 335.000
21555775.000 4560235.000 310.000
21555800.000 4560170.000 335.000
21555700.000 4560140.000 250.000
21555775.000 4560100.000 321.250
21555700.000 4560130.000 250.000
21555825.000 4560112.500 342.500
21555850.000 4560055.000 350.000
21555750.000 4560030.000 307.500
21555862.969 4560025.156 353.893
21555863.453 4560000.504 352.881
21555700.000 4559890.000 280.000
21555863.641 4559990.523 352.472
21555700.000 4559950.000 272.500
21555700.000 4560010.000 265.000
21555600.000 4559975.000 265.000
21555500.000 4559820.000 265.000
21555500.000 4560060.000 250.000
21555750.000 4559792.500 301.250
21555500.000 4559712.500 261.250
21555862.406 4559903.035 349.023
21555855.266 4559818.816 345.991
21555864.797 4559931.199 350.038
21555850.563 4559763.262 343.990
21555800.000 4559695.000 322.500
21555845.750 4559706.438 341.944
21555700.000 4559670.000 287.500
21555650.000 4559542.500 287.500
21555600.000 4559635.000 280.000
21555700.000 4559450.000 295.000
21555839.719 4559617.551 339.380
21555500.000 4559497.500 253.750
21555500.000 4559605.000 257.500
21555500.000 4559390.000 250.000
21555425.000 4559475.000 288.750
21555324.219 4559350.023 358.294
21555308.063 4559434.074 361.833
21555328.094 4559329.832 357.444
21555350.000 4559560.000 327.500
21555301.094 4559470.352 363.360
21555265.484 4559655.785 371.167
[...]
POINT_DATA 427
COLOR_SCALARS GocadColor 4
0.819608 0.698116 0.549615 1
0.819608 0.698116 0.549615 1
0.819608 0.698116 0.549615 1
0.819608 0.698116 0.549615 1
0.819608 0.698116 0.549615 1
0.819608 0.698116 0.549615 1
0.819608 0.698116 0.549615 1
0.819608 0.698116 0.549615 1
0.819608 0.698116 0.549615 1
0.819608 0.698116 0.549615 1
0.819608 0.698116 0.549615 1
0.819608 0.698116 0.549615 1
0.819608 0.698116 0.549615 1
0.819608 0.698116 0.549615 1
0.819608 0.698116 0.549615 1
0.819608 0.698116 0.549615 1
0.819608 0.698116 0.549615 1
0.819608 0.698116 0.549615 1
0.819608 0.698116 0.549615 1
0.819608 0.698116 0.549615 1
0.819608 0.698116 0.549615 1
0.819608 0.698116 0.549615 1
0.819608 0.698116 0.549615 1
0.819608 0.698116 0.549615 1
0.819608 0.698116 0.549615 1
0.819608 0.698116 0.549615 1
0.819608 0.698116 0.549615 1
0.819608 0.698116 0.549615 1
0.819608 0.698116 0.549615 1
0.819608 0.698116 0.549615 1
0.819608 0.698116 0.549615 1
0.819608 0.698116 0.549615 1
0.819608 0.698116 0.549615 1
0.819608 0.698116 0.549615 1
0.819608 0.698116 0.549615 1
0.819608 0.698116 0.549615 1
0.819608 0.698116 0.549615 1
0.819608 0.698116 0.549615 1
0.819608 0.698116 0.549615 1
0.819608 0.698116 0.549615 1
0.819608 0.698116 0.549615 1
0.819608 0.698116 0.549615 1
0.819608 0.698116 0.549615 1
0.819608 0.698116 0.549615 1
0.819608 0.698116 0.549615 1
0.819608 0.698116 0.549615 1
0.819608 0.698116 0.549615 1
0.819608 0.698116 0.549615 1
0.819608 0.698116 0.549615 1
0.819608 0.698116 0.549615 1
0.819608 0.698116 0.549615 1
0.819608 0.698116 0.549615 1
0.819608 0.698116 0.549615 1
0.819608 0.698116 0.549615 1
0.819608 0.698116 0.549615 1
0.819608 0.698116 0.549615 1
0.819608 0.698116 0.549615 1
0.819608 0.698116 0.549615 1
0.819608 0.698116 0.549615 1
0.819608 0.698116 0.549615 1
0.819608 0.698116 0.549615 1
0.819608 0.698116 0.549615 1
0.819608 0.698116 0.549615 1
0.819608 0.698116 0.549615 1
0.819608 0.698116 0.549615 1
0.819608 0.698116 0.549615 1
0.819608 0.698116 0.549615 1
0.819608 0.698116 0.549615 1
0.819608 0.698116 0.549615 1
0.819608 0.698116 0.549615 1
0.819608 0.698116 0.549615 1
0.819608 0.698116 0.549615 1
0.819608 0.698116 0.549615 1
0.819608 0.698116 0.549615 1
0.819608 0.698116 0.549615 1
0.819608 0.698116 0.549615 1
0.819608 0.698116 0.549615 1
0.819608 0.698116 0.549615 1
0.819608 0.698116 0.549615 1
0.819608 0.698116 0.549615 1
0.819608 0.698116 0.549615 1
0.819608 0.698116 0.549615 1
0.819608 0.698116 0.549615 1
0.819608 0.698116 0.549615 1
0.819608 0.698116 0.549615 1
0.819608 0.698116 0.549615 1
0.819608 0.698116 0.549615 1
0.819608 0.698116 0.549615 1
0.819608 0.698116 0.549615 1
0.819608 0.698116 0.549615 1
0.819608 0.698116 0.549615 1
0.819608 0.698116 0.549615 1
0.819608 0.698116 0.549615 1
0.819608 0.698116 0.549615 1
0.819608 0.698116 0.549615 1
0.819608 0.698116 0.549615 1
0.819608 0.698116 0.549615 1
0.819608 0.698116 0.549615 1
0.819608 0.698116 0.549615 1
0.819608 0.698116 0.549615 1
0.819608 0.698116 0.549615 1
0.819608 0.698116 0.549615 1
0.819608 0.698116 0.549615 1
0.819608 0.698116 0.549615 1
0.819608 0.698116 0.549615 1
0.819608 0.698116 0.549615 1
0.819608 0.698116 0.549615 1
0.819608 0.698116 0.549615 1
0.819608 0.698116 0.549615 1
0.819608 0.698116 0.549615 1
0.819608 0.698116 0.549615 1
0.819608 0.698116 0.549615 1
0.819608 0.698116 0.549615 1
0.819608 0.698116 0.549615 1
0.819608 0.698116 0.549615 1
0.819608 0.698116 0.549615 1
0.819608 0.698116 0.549615 1
0.819608 0.698116 0.549615 1
0.819608 0.698116 0.549615 1
0.819608 0.698116 0.549615 1
0.819608 0.698116 0.549615 1
0.819608 0.698116 0.549615 1
0.819608 0.698116 0.549615 1
0.819608 0.698116 0.549615 1
0.819608 0.698116 0.549615 1
0.819608 0.698116 0.549615 1
0.819608 0.698116 0.549615 1
0.819608 0.698116 0.549615 1
0.819608 0.698116 0.549615 1
0.819608 0.698116 0.549615 1
0.819608 0.698116 0.549615 1
0.819608 0.698116 0.549615 1
0.819608 0.698116 0.549615 1
0.819608 0.698116 0.549615 1
0.819608 0.698116 0.549615 1
0.819608 0.698116 0.549615 1
0.819608 0.698116 0.549615 1
0.819608 0.698116 0.549615 1
0.819608 0.698116 0.549615 1
0.819608 0.698116 0.549615 1
0.819608 0.698116 0.549615 1
0.819608 0.698116 0.549615 1
0.819608 0.698116 0.549615 1
0.819608 0.698116 0.549615 1
0.819608 0.698116 0.549615 1
0.819608 0.698116 0.549615 1
0.819608 0.698116 0.549615 1
0.819608 0.698116 0.549615 1
0.819608 0.698116 0.549615 1
0.819608 0.698116 0.549615 1
0.819608 0.698116 0.549615 1
0.819608 0.698116 0.549615 1
0.819608 0.698116 0.549615 1
0.819608 0.698116 0.549615 1
0.819608 0.698116 0.549615 1
0.819608 0.698116 0.549615 1
0.819608 0.698116 0.549615 1
0.819608 0.698116 0.549615 1
0.819608 0.698116 0.549615 1
0.819608 0.698116 0.549615 1
0.819608 0.698116 0.549615 1
0.819608 0.698116 0.549615 1
0.819608 0.698116 0.549615 1
0.819608 0.698116 0.549615 1
0.819608 0.698116 0.549615 1
0.819608 0.698116 0.549615 1
0.819608 0.698116 0.549615 1
0.819608 0.698116 0.549615 1
0.819608 0.698116 0.549615 1
0.819608 0.698116 0.549615 1
0.819608 0.698116 0.549615 1
0.819608 0.698116 0.549615 1
0.819608 0.698116 0.549615 1
0.819608 0.698116 0.549615 1
0.819608 0.698116 0.549615 1
0.819608 0.698116 0.549615 1
0.819608 0.698116 0.549615 1
0.819608 0.698116 0.549615 1
0.819608 0.698116 0.549615 1
0.819608 0.698116 0.549615 1
0.819608 0.698116 0.549615 1
0.819608 0.698116 0.549615 1
0.819608 0.698116 0.549615 1
0.819608 0.698116 0.549615 1
0.819608 0.698116 0.549615 1
0.819608 0.698116 0.549615 1
0.819608 0.698116 0.549615 1
0.819608 0.698116 0.549615 1
0.819608 0.698116 0.549615 1
0.819608 0.698116 0.549615 1
0.819608 0.698116 0.549615 1
0.819608 0.698116 0.549615 1
0.819608 0.698116 0.549615 1
0.819608 0.698116 0.549615 1
0.819608 0.698116 0.549615 1
0.819608 0.698116 0.549615 1
0.819608 0.698116 0.549615 1
0.819608 0.698116 0.549615 1
0.819608 0.698116 0.549615 1
0.819608 0.698116 0.549615 1
0.819608 0.698116 0.549615 1
0.819608 0.698116 0.549615 1
0.819608 0.698116 0.549615 1
0.819608 0.698116 0.549615 1
0.819608 0.698116 0.549615 1
0.819608 0.698116 0.549615 1
0.819608 0.698116 0.549615 1
0.819608 0.698116 0.549615 1
0.819608 0.698116 0.549615 1
0.819608 0.698116 0.549615 1
0.819608 0.698116 0.549615 1
0.819608 0.698116 0.549615 1
0.819608 0.698116 0.549615 1
0.819608 0.698116 0.549615 1
0.819608 0.698116 0.549615 1
0.819608 0.698116 0.549615 1
0.819608 0.698116 0.549615 1
0.819608 0.698116 0.549615 1
0.819608 0.698116 0.549615 1
0.819608 0.698116 0.549615 1
0.819608 0.698116 0.549615 1
0.819608 0.698116 0.549615 1
0.819608 0.698116 0.549615 1
0.819608 0.698116 0.549615 1
0.819608 0.698116 0.549615 1
0.819608 0.698116 0.549615 1
0.819608 0.698116 0.549615 1
0.819608 0.698116 0.549615 1
0.819608 0.698116 0.549615 1
0.819608 0.698116 0.549615 1
0.819608 0.698116 0.549615 1
0.819608 0.698116 0.549615 1
0.819608 0.698116 0.549615 1
0.819608 0.698116 0.549615 1
0.819608 0.698116 0.549615 1
0.819608 0.698116 0.549615 1
0.819608 0.698116 0.549615 1
0.819608 0.698116 0.549615 1
0.819608 0.698116 0.549615 1
0.819608 0.698116 0.549615 1
0.819608 0.698116 0.549615 1
0.819608 0.698116 0.549615 1
0.819608 0.698116 0.549615 1
0.819608 0.698116 0.549615 1
0.819608 0.698116 0.549615 1
0.819608 0.698116 0.549615 1
0.819608 0.698116 0.549615 1
0.819608 0.698116 0.549615 1
0.819608 0.698116 0.549615 1
0.819608 0.698116 0.549615 1
0.819608 0.698116 0.549615 1
0.819608 0.698116 0.549615 1
0.819608 0.698116 0.549615 1
0.819608 0.698116 0.549615 1
0.819608 0.698116 0.549615 1
0.819608 0.698116 0.549615 1
0.819608 0.698116 0.549615 1
0.819608 0.698116 0.549615 1
0.819608 0.698116 0.549615 1
0.819608 0.698116 0.549615 1
0.819608 0.698116 0.549615 1
0.819608 0.698116 0.549615 1
0.819608 0.698116 0.549615 1
0.819608 0.698116 0.549615 1
0.819608 0.698116 0.549615 1
0.819608 0.698116 0.549615 1
0.819608 0.698116 0.549615 1
0.819608 0.698116 0.549615 1
0.819608 0.698116 0.549615 1
0.819608 0.698116 0.549615 1
0.819608 0.698116 0.549615 1
0.819608 0.698116 0.549615 1
0.819608 0.698116 0.549615 1
0.819608 0.698116 0.549615 1
0.819608 0.698116 0.549615 1
0.819608 0.698116 0.549615 1
0.819608 0.698116 0.549615 1
0.819608 0.698116 0.549615 1
0.819608 0.698116 0.549615 1
0.819608 0.698116 0.549615 1
0.819608 0.698116 0.549615 1
0.819608 0.698116 0.549615 1
0.819608 0.698116 0.549615 1
0.819608 0.698116 0.549615 1
0.819608 0.698116 0.549615 1
0.819608 0.698116 0.549615 1
0.819608 0.698116 0.549615 1
0.819608 0.698116 0.549615 1
0.819608 0.698116 0.549615 1
0.819608 0.698116 0.549615 1
0.819608 0.698116 0.549615 1
0.819608 0.698116 0.549615 1
0.819608 0.698116 0.549615 1
0.819608 0.698116 0.549615 1
0.819608 0.698116 0.549615 1
0.819608 0.698116 0.549615 1
0.819608 0.698116 0.549615 1
0.819608 0.698116 0.549615 1
0.819608 0.698116 0.549615 1
0.819608 0.698116 0.549615 1
0.819608 0.698116 0.549615 1
0.819608 0.698116 0.549615 1
0.819608 0.698116 0.549615 1
0.819608 0.698116 0.549615 1
0.819608 0.698116 0.549615 1
0.819608 0.698116 0.549615 1
0.819608 0.698116 0.549615 1
0.819608 0.698116 0.549615 1
0.819608 0.698116 0.549615 1
0.819608 0.698116 0.549615 1
0.819608 0.698116 0.549615 1
0.819608 0.698116 0.549615 1
0.819608 0.698116 0.549615 1
0.819608 0.698116 0.549615 1
0.819608 0.698116 0.549615 1
0.819608 0.698116 0.549615 1
0.819608 0.698116 0.549615 1
0.819608 0.698116 0.549615 1
0.819608 0.698116 0.549615 1
0.819608 0.698116 0.549615 1
0.819608 0.698116 0.549615 1
0.819608 0.698116 0.549615 1
0.819608 0.698116 0.549615 1
0.819608 0.698116 0.549615 1
0.819608 0.698116 0.549615 1
0.819608 0.698116 0.549615 1
0.819608 0.698116 0.549615 1
0.819608 0.698116 0.549615 1
0.819608 0.698116 0.549615 1
0.819608 0.698116 0.549615 1
0.819608 0.698116 0.549615 1
0.819608 0.698116 0.549615 1
0.819608 0.698116 0.549615 1
0.819608 0.698116 0.549615 1
0.819608 0.698116 0.549615 1
0.819608 0.698116 0.549615 1
0.819608 0.698116 0.549615 1
0.819608 0.698116 0.549615 1
0.819608 0.698116 0.549615 1
0.819608 0.698116 0.549615 1
0.819608 0.698116 0.549615 1
0.819608 0.698116 0.549615 1
0.819608 0.698116 0.549615 1
0.819608 0.698116 0.549615 1
0.819608 0.698116 0.549615 1
0.819608 0.698116 0.549615 1
0.819608 0.698116 0.549615 1
0.819608 0.698116 0.549615 1
0.819608 0.698116 0.549615 1
0.819608 0.698116 0.549615 1
0.819608 0.698116 0.549615 1
0.819608 0.698116 0.549615 1
0.819608 0.698116 0.549615 1
0.819608 0.698116 0.549615 1
0.819608 0.698116 0.549615 1
0.819608 0.698116 0.549615 1
0.819608 0.698116 0.549615 1
0.819608 0.698116 0.549615 1
0.819608 0.698116 0.549615 1
0.819608 0.698116 0.549615 1
0.819608 0.698116 0.549615 1
0.819608 0.698116 0.549615 1
0.819608 0.698116 0.549615 1
0.819608 0.698116 0.549615 1
0.819608 0.698116 0.549615 1
0.819608 0.698116 0.549615 1
0.819608 0.698116 0.549615 1
0.819608 0.698116 0.549615 1
0.819608 0.698116 0.549615 1
0.819608 0.698116 0.549615 1
0.819608 0.698116 0.549615 1
0.819608 0.698116 0.549615 1
0.819608 0.698116 0.549615 1
0.819608 0.698116 0.549615 1
0.819608 0.698116 0.549615 1
0.819608 0.698116 0.549615 1
0.819608 0.698116 0.549615 1
0.819608 0.698116 0.549615 1
0.819608 0.698116 0.549615 1
0.819608 0.698116 0.549615 1
0.819608 0.698116 0.549615 1
0.819608 0.698116 0.549615 1
0.819608 0.698116 0.549615 1
0.819608 0.698116 0.549615 1
0.819608 0.698116 0.549615 1
0.819608 0.698116 0.549615 1
0.819608 0.698116 0.549615 1
0.819608 0.698116 0.549615 1
0.819608 0.698116 0.549615 1
0.819608 0.698116 0.549615 1
0.819608 0.698116 0.549615 1
0.819608 0.698116 0.549615 1
0.819608 0.698116 0.549615 1
0.819608 0.698116 0.549615 1
0.819608 0.698116 0.549615 1
0.819608 0.698116 0.549615 1
0.819608 0.698116 0.549615 1
0.819608 0.698116 0.549615 1
0.819608 0.698116 0.549615 1
0.819608 0.698116 0.549615 1
0.819608 0.698116 0.549615 1
0.819608 0.698116 0.549615 1
0.819608 0.698116 0.549615 1
0.819608 0.698116 0.549615 1
0.819608 0.698116 0.549615 1
0.819608 0.698116 0.549615 1
0.819608 0.698116 0.549615 1
0.819608 0.698116 0.549615 1
0.819608 0.698116 0.549615 1
0.819608 0.698116 0.549615 1
0.819608 0.698116 0.549615 1
0.819608 0.698116 0.549615 1
0.819608 0.698116 0.549615 1
0.819608 0.698116 0.549615 1
0.819608 0.698116 0.549615 1
0.819608 0.698116 0.549615 1
0.819608 0.698116 0.549615 1
0.819608 0.698116 0.549615 1
0.819608 0.698116 0.549615 1
0.819608 0.698116 0.549615 1
0.819608 0.698116 0.549615 1
0.819608 0.698116 0.549615 1
0.819608 0.698116 0.549615 1
0.819608 0.698116 0.549615 1
0.819608 0.698116 0.549615 1
0.819608 0.698116 0.549615 1
0.819608 0.698116 0.549615 1

