# vtk DataFile Version 3.0
Gocad TSurf to VTK
ASCII
DATASET POLYDATA
POINTS 574 float
21619175.000 4579997.500 122.500
21617000.000 4579000.000 -1160.000
21617075.000 4579172.500 -1103.750
21616700.000 4579025.000 -1316.250
21617300.000 4579690.000 -935.000
21619654.852 4580068.516 393.137
21619640.086 4580101.516 394.156
21619658.688 4580034.992 392.485
21617825.000 4579072.500 -768.750
21619668.141 4580022.063 391.960
21617100.000 4578545.000 -1277.500
21616900.000 4578717.500 -1298.750
21619475.000 4579217.500 13.750
21619738.727 4579925.508 388.041
21617200.000 4578090.000 -1395.000
21616700.000 4578152.500 -1576.250
21620239.844 4579284.711 376.472
21620094.195 4579458.539 375.314
21620251.031 4579271.047 376.568
21620253.961 4579250.008 376.946
21619500.000 4578595.000 -82.500
21620351.242 4579100.883 378.388
21618325.000 4577947.500 -776.250
21617100.000 4577877.500 -1416.250
21618875.000 4577772.500 -511.250
21617200.000 4577197.500 -1305.000
21620000.000 4577990.000 7.500
21620600.000 4578590.000 350.000
21619400.000 4577390.000 -335.000
21620300.000 4577365.000 70.000
21618400.000 4577070.000 -780.000
21618000.000 4577112.500 -955.000
21618275.000 4576625.000 -837.500
21618025.000 4576545.000 -948.750
21620750.000 4577352.500 272.500
21621050.000 4577625.000 447.500
21617900.000 4576370.000 -1005.000
21621153.766 4577341.281 454.193
21617625.000 4576417.500 -1141.250
21616600.000 4575990.000 -1575.000
21616650.000 4576132.500 -1568.750
21617525.000 4576205.000 -1207.500
21618550.000 4576330.000 -760.000
21616550.000 4575920.000 -1635.000
21616500.000 4575850.000 -1695.000
21616775.000 4575875.000 -1612.500
21616450.000 4575780.000 -1755.000
21616400.000 4575710.000 -1815.000
21619200.000 4576290.000 -515.000
21617075.000 4575750.000 -1563.750
21619175.000 4576185.000 -588.750
21616350.000 4575617.500 -1940.000
21616300.000 4575525.000 -2065.000
21616250.000 4575432.500 -2190.000
21618425.000 4575830.000 -1061.250
21616200.000 4575340.000 -2315.000
21618975.000 4575717.500 -855.000
21616800.000 4575320.000 -1983.750
21618850.000 4575565.000 -900.000
21616150.000 4575250.000 -2291.250
21616100.000 4575160.000 -2267.500
21616050.000 4575070.000 -2243.750
21618000.000 4575280.000 -1321.250
21616000.000 4574980.000 -2220.000
21618600.000 4575260.000 -990.000
21616650.000 4574922.500 -1912.500
21617950.000 4574807.500 -1297.500
21615950.000 4574907.500 -2216.250
21615900.000 4574835.000 -2212.500
21615850.000 4574762.500 -2208.750
21615800.000 4574690.000 -2205.000
21618600.000 4574750.000 -990.000
21621000.000 4574937.500 -18.750
21616025.000 4574637.500 -2051.250
21616700.000 4574480.000 -1590.000
21615775.000 4574657.500 -2117.500
21615750.000 4574625.000 -2030.000
21615725.000 4574592.500 -1942.500
21615700.000 4574560.000 -1855.000
21616400.000 4574442.500 -1590.000
21616775.000 4574375.000 -1500.000
21615650.000 4574502.500 -1788.750
21616100.000 4574405.000 -1590.000
21615600.000 4574445.000 -1722.500
21615550.000 4574387.500 -1656.250
21615500.000 4574330.000 -1590.000
21616200.000 4574040.000 -1375.000
21615475.000 4574252.500 -1572.500
21615450.000 4574175.000 -1555.000
21615425.000 4574097.500 -1537.500
21615400.000 4574020.000 -1520.000
21617075.000 4573937.500 -1187.500
21615825.000 4573822.500 -1423.750
21616675.000 4573427.500 -1231.250
21615375.000 4573982.500 -1525.000
21615350.000 4573945.000 -1530.000
21615325.000 4573907.500 -1535.000
21615300.000 4573870.000 -1540.000
21617100.000 4573230.000 -1135.000
21616150.000 4573465.000 -1405.000
21617375.000 4573000.000 -1028.750
21615275.000 4573827.500 -1573.750
21615250.000 4573785.000 -1607.500
21615225.000 4573742.500 -1641.250
21615200.000 4573700.000 -1675.000
21618200.000 4572310.000 -710.000
21615750.000 4573305.000 -1476.250
21618000.000 4572262.500 -752.500
21615150.000 4573647.500 -1650.000
21615100.000 4573595.000 -1625.000
21616850.000 4572515.000 -1078.750
21615050.000 4573542.500 -1600.000
21615000.000 4573490.000 -1575.000
21617400.000 4572120.000 -880.000
21616150.000 4572705.000 -1172.500
21617900.000 4571120.000 -420.000
21614975.000 4573440.000 -1547.500
21614950.000 4573390.000 -1520.000
21614925.000 4573340.000 -1492.500
21614900.000 4573290.000 -1465.000
21620350.000 4570065.000 -125.000
21622800.000 4569010.000 170.000
21622600.000 4567760.000 155.000
21622650.000 4568072.500 158.750
21622700.000 4568385.000 162.500
21622750.000 4568697.500 166.250
21621650.000 4569835.000 -50.000
21622825.000 4569285.000 183.750
21622850.000 4569560.000 197.500
21622875.000 4569835.000 211.250
21619350.000 4571485.000 -490.000
21622900.000 4570110.000 225.000
21619350.000 4572035.000 -473.750
21622875.000 4570385.000 227.500
21622850.000 4570660.000 230.000
21621650.000 4571485.000 -1.250
21622825.000 4570935.000 232.500
21622800.000 4571210.000 235.000
21619800.000 4572765.000 -407.500
21622725.000 4571482.500 256.250
21622650.000 4571755.000 277.500
21622575.000 4572027.500 298.750
21622500.000 4572310.000 320.000
21619800.000 4573330.000 -452.500
21622450.000 4572497.500 278.750
21622350.000 4572895.000 196.250
21622450.000 4572505.000 278.750
21622300.000 4573090.000 155.000
21619550.000 4574015.000 -622.500
21622250.000 4573310.000 112.500
21622100.000 4573970.000 -15.000
21622250.000 4573310.000 112.500
21622200.000 4573530.000 70.000
21622150.000 4573750.000 27.500
21621225.000 4574165.000 -258.750
21622025.000 4574185.000 65.000
21621950.000 4574400.000 145.000
21622025.000 4574185.000 65.000
21621875.000 4574615.000 225.000
21621800.000 4574830.000 305.000
21621800.000 4575020.000 322.500
21621800.000 4575210.000 340.000
21619400.000 4575152.500 -666.250
21621800.000 4575400.000 357.500
21621800.000 4575590.000 375.000
21621125.000 4575660.000 78.750
21621750.000 4575777.500 375.000
21621700.000 4575965.000 375.000
21619775.000 4575800.000 -513.750
21621650.000 4576152.500 375.000
21621600.000 4576340.000 375.000
21621000.000 4576327.500 152.500
21621525.000 4576677.500 408.750
21621500.000 4576790.000 420.000
21620200.000 4576815.000 -20.000
21621425.000 4576927.500 433.750
21621350.000 4577065.000 447.500
21621425.000 4576927.500 433.750
21621318.195 4577123.313 453.331
21621256.789 4577195.938 453.098
21621227.359 4577230.742 452.986
21621157.891 4577317.891 454.154
21621153.664 4577326.383 454.220
21616700.000 4576275.000 -1562.500
21617075.000 4576512.500 -1413.750
21616750.000 4576417.500 -1556.250
21616800.000 4576560.000 -1550.000
21616800.000 4576730.000 -1532.500
21616800.000 4576900.000 -1515.000
21616800.000 4577070.000 -1497.500
21616800.000 4577240.000 -1480.000
21616750.000 4577397.500 -1538.750
21616700.000 4577555.000 -1597.500
21616650.000 4577712.500 -1656.250
21616600.000 4577870.000 -1715.000
21616450.000 4578050.000 -1722.500
21616300.000 4578230.000 -1730.000
21616800.000 4578435.000 -1437.500
21616150.000 4578410.000 -1737.500
21616000.000 4578590.000 -1745.000
21615950.000 4578717.500 -1755.000
21615900.000 4578845.000 -1765.000
21616100.000 4579075.000 -1628.750
21615850.000 4578972.500 -1775.000
21615800.000 4579100.000 -1785.000
21615800.000 4579625.000 -1417.500
21615675.000 4579217.500 -1736.250
21616175.000 4579772.500 -1205.000
21615800.000 4579800.000 -1295.000
21617750.000 4580045.000 -600.000
21618650.000 4580755.000 70.000
21619400.000 4580560.000 390.000
21619325.000 4580697.500 393.750
21619464.563 4580484.133 403.720
21619489.969 4580428.766 402.336
21619553.875 4580289.453 398.854
21619608.297 4580170.820 395.888
21619250.000 4580835.000 397.500
21619325.000 4580697.500 393.750
21619175.000 4580972.500 401.250
21619143.406 4581030.414 402.830
21619100.859 4581093.461 400.423
21619092.688 4581104.234 399.557
21619089.117 4581105.680 399.394
21619088.219 4581107.484 399.258
21617300.000 4580725.000 -472.500
21618975.672 4581333.789 382.207
21615425.000 4580145.000 -1452.500
21615300.000 4580260.000 -1505.000
21615300.000 4579742.500 -1568.750
21615300.000 4579915.000 -1547.500
21615300.000 4579570.000 -1590.000
21615175.000 4579697.500 -1628.750
21615050.000 4579825.000 -1667.500
21615300.000 4580087.500 -1526.250
21614925.000 4579952.500 -1706.250
21614800.000 4580080.000 -1745.000
21614900.000 4580540.000 -1672.500
21614725.000 4580265.000 -1768.750
21615900.000 4580910.000 -1100.000
21614700.000 4580680.000 -1756.250
21618225.000 4581627.500 88.750
21616500.000 4581560.000 -695.000
21618800.000 4581650.000 350.000
21618725.000 4581815.000 336.250
21618875.000 4581515.000 363.750
21618650.000 4581975.000 322.500
21618725.000 4581812.500 336.250
21618575.000 4582137.500 308.750
21618500.000 4582300.000 295.000
21617300.000 4582180.000 -207.500
21618400.000 4582422.500 291.250
21615700.000 4581772.500 -1108.750
21615300.000 4581455.000 -1352.500
21617675.000 4582832.500 73.750
21616250.000 4582510.000 -705.000
21618100.000 4582790.000 280.000
21618200.000 4582667.500 283.750
21618025.000 4582912.500 283.750
21617950.000 4583035.000 287.500
21617250.000 4582865.000 -132.500
21617875.000 4583157.500 291.250
21616475.000 4583365.000 -398.750
21616000.000 4582830.000 -795.000
21617795.445 4583276.563 291.461
21617793.063 4583280.445 291.369
21617843.797 4583208.461 292.810
21617792.633 4583281.305 291.344
21617475.000 4583337.500 133.750
21617750.547 4583393.742 287.582
21616500.000 4583510.000 -350.000
21617600.000 4583740.000 265.000
21617375.000 4583842.500 163.750
21617650.000 4583625.000 272.500
21617700.000 4583510.000 280.000
21617750.000 4583395.000 287.500
21617750.000 4583395.000 287.500
21617750.547 4583393.742 287.582
21616100.000 4583570.000 -583.750
21617550.000 4583880.000 272.500
21617462.875 4584123.953 285.569
21617550.000 4583880.000 272.500
21617462.875 4584123.953 285.569
21617448.805 4584154.953 285.533
21616925.000 4584047.500 -38.750
21617446.828 4584159.320 285.528
21616625.000 4584972.500 -28.750
21617195.703 4584916.219 299.631
21615350.000 4584322.500 -788.750
21614600.000 4583365.000 -1535.000
21614900.000 4584380.000 -1005.000
21616075.000 4584802.500 -373.750
[...]
POINT_DATA 574
COLOR_SCALARS GocadColor 4
1 0.498039 0.313726 1
1 0.498039 0.313726 1
1 0.498039 0.313726 1
1 0.498039 0.313726 1
1 0.498039 0.313726 1
1 0.498039 0.313726 1
1 0.498039 0.313726 1
1 0.498039 0.313726 1
1 0.498039 0.313726 1
1 0.498039 0.313726 1
1 0.498039 0.313726 1
1 0.498039 0.313726 1
1 0.498039 0.313726 1
1 0.498039 0.313726 1
1 0.498039 0.313726 1
1 0.498039 0.313726 1
1 0.498039 0.313726 1
1 0.498039 0.313726 1
1 0.498039 0.313726 1
1 0.498039 0.313726 1
1 0.498039 0.313726 1
1 0.498039 0.313726 1
1 0.498039 0.313726 1
1 0.498039 0.313726 1
1 0.498039 0.313726 1
1 0.498039 0.313726 1
1 0.498039 0.313726 1
1 0.498039 0.313726 1
1 0.498039 0.313726 1
1 0.498039 0.313726 1
1 0.498039 0.313726 1
1 0.498039 0.313726 1
1 0.498039 0.313726 1
1 0.498039 0.313726 1
1 0.498039 0.313726 1
1 0.498039 0.313726 1
1 0.498039 0.313726 1
1 0.498039 0.313726 1
1 0.498039 0.313726 1
1 0.498039 0.313726 1
1 0.498039 0.313726 1
1 0.498039 0.313726 1
1 0.498039 0.313726 1
1 0.498039 0.313726 1
1 0.498039 0.313726 1
1 0.498039 0.313726 1
1 0.498039 0.313726 1
1 0.498039 0.313726 1
1 0.498039 0.313726 1
1 0.498039 0.313726 1
1 0.498039 0.313726 1
1 0.498039 0.313726 1
1 0.498039 0.313726 1
1 0.498039 0.313726 1
1 0.498039 0.313726 1
1 0.498039 0.313726 1
1 0.498039 0.313726 1
1 0.498039 0.313726 1
1 0.498039 0.313726 1
1 0.498039 0.313726 1
1 0.498039 0.313726 1
1 0.498039 0.313726 1
1 0.498039 0.313726 1
1 0.498039 0.313726 1
1 0.498039 0.313726 1
1 0.498039 0.313726 1
1 0.498039 0.313726 1
1 0.498039 0.313726 1
1 0.498039 0.313726 1
1 0.498039 0.313726 1
1 0.498039 0.313726 1
1 0.498039 0.313726 1
1 0.498039 0.313726 1
1 0.498039 0.313726 1
1 0.498039 0.313726 1
1 0.498039 0.313726 1
1 0.498039 0.313726 1
1 0.498039 0.313726 1
1 0.498039 0.313726 1
1 0.498039 0.313726 1
1 0.498039 0.313726 1
1 0.498039 0.313726 1
1 0.498039 0.313726 1
1 0.498039 0.313726 1
1 0.498039 0.313726 1
1 0.498039 0.313726 1
1 0.498039 0.313726 1
1 0.498039 0.313726 1
1 0.498039 0.313726 1
1 0.498039 0.313726 1
1 0.498039 0.313726 1
1 0.498039 0.313726 1
1 0.498039 0.313726 1
1 0.498039 0.313726 1
1 0.498039 0.313726 1
1 0.498039 0.313726 1
1 0.498039 0.313726 1
1 0.498039 0.313726 1
1 0.498039 0.313726 1
1 0.498039 0.313726 1
1 0.498039 0.313726 1
1 0.498039 0.313726 1
1 0.498039 0.313726 1
1 0.498039 0.313726 1
1 0.498039 0.313726 1
1 0.498039 0.313726 1
1 0.498039 0.313726 1
1 0.498039 0.313726 1
1 0.498039 0.313726 1
1 0.498039 0.313726 1
1 0.498039 0.313726 1
1 0.498039 0.313726 1
1 0.498039 0.313726 1
1 0.498039 0.313726 1
1 0.498039 0.313726 1
1 0.498039 0.313726 1
1 0.498039 0.313726 1
1 0.498039 0.313726 1
1 0.498039 0.313726 1
1 0.498039 0.313726 1
1 0.498039 0.313726 1
1 0.498039 0.313726 1
1 0.498039 0.313726 1
1 0.498039 0.313726 1
1 0.498039 0.313726 1
1 0.498039 0.313726 1
1 0.498039 0.313726 1
1 0.498039 0.313726 1
1 0.498039 0.313726 1
1 0.498039 0.313726 1
1 0.498039 0.313726 1
1 0.498039 0.313726 1
1 0.498039 0.313726 1
1 0.498039 0.313726 1
1 0.498039 0.313726 1
1 0.498039 0.313726 1
1 0.498039 0.313726 1
1 0.498039 0.313726 1
1 0.498039 0.313726 1
1 0.498039 0.313726 1
1 0.498039 0.313726 1
1 0.498039 0.313726 1
1 0.498039 0.313726 1
1 0.498039 0.313726 1
1 0.498039 0.313726 1
1 0.498039 0.313726 1
1 0.498039 0.313726 1
1 0.498039 0.313726 1
1 0.498039 0.313726 1
1 0.498039 0.313726 1
1 0.498039 0.313726 1
1 0.498039 0.313726 1
1 0.498039 0.313726 1
1 0.498039 0.313726 1
1 0.498039 0.313726 1
1 0.498039 0.313726 1
1 0.498039 0.313726 1
1 0.498039 0.313726 1
1 0.498039 0.313726 1
1 0.498039 0.313726 1
1 0.498039 0.313726 1
1 0.498039 0.313726 1
1 0.498039 0.313726 1
1 0.498039 0.313726 1
1 0.498039 0.313726 1
1 0.498039 0.313726 1
1 0.498039 0.313726 1
1 0.498039 0.313726 1
1 0.498039 0.313726 1
1 0.498039 0.313726 1
1 0.498039 0.313726 1
1 0.498039 0.313726 1
1 0.498039 0.313726 1
1 0.498039 0.313726 1
1 0.498039 0.313726 1
1 0.498039 0.313726 1
1 0.498039 0.313726 1
1 0.498039 0.313726 1
1 0.498039 0.313726 1
1 0.498039 0.313726 1
1 0.498039 0.313726 1
1 0.498039 0.313726 1
1 0.498039 0.313726 1
1 0.498039 0.313726 1
1 0.498039 0.313726 1
1 0.498039 0.313726 1
1 0.498039 0.313726 1
1 0.498039 0.313726 1
1 0.498039 0.313726 1
1 0.498039 0.313726 1
1 0.498039 0.313726 1
1 0.498039 0.313726 1
1 0.498039 0.313726 1
1 0.498039 0.313726 1
1 0.498039 0.313726 1
1 0.498039 0.313726 1
1 0.498039 0.313726 1
1 0.498039 0.313726 1
1 0.498039 0.313726 1
1 0.498039 0.313726 1
1 0.498039 0.313726 1
1 0.498039 0.313726 1
1 0.498039 0.313726 1
1 0.498039 0.313726 1
1 0.498039 0.313726 1
1 0.498039 0.313726 1
1 0.498039 0.313726 1
1 0.498039 0.313726 1
1 0.498039 0.313726 1
1 0.498039 0.313726 1
1 0.498039 0.313726 1
1 0.498039 0.313726 1
1 0.498039 0.313726 1
1 0.498039 0.313726 1
1 0.498039 0.313726 1
1 0.498039 0.313726 1
1 0.498039 0.313726 1
1 0.498039 0.313726 1
1 0.498039 0.313726 1
1 0.498039 0.313726 1
1 0.498039 0.313726 1
1 0.498039 0.313726 1
1 0.498039 0.313726 1
1 0.498039 0.313726 1
1 0.498039 0.313726 1
1 0.498039 0.313726 1
1 0.498039 0.313726 1
1 0.498039 0.313726 1
1 0.498039 0.313726 1
1 0.498039 0.313726 1
1 0.498039 0.313726 1
1 0.498039 0.313726 1
1 0.498039 0.313726 1
1 0.498039 0.313726 1
1 0.498039 0.313726 1
1 0.498039 0.313726 1
1 0.498039 0.313726 1
1 0.498039 0.313726 1
1 0.498039 0.313726 1
1 0.498039 0.313726 1
1 0.498039 0.313726 1
1 0.498039 0.313726 1
1 0.498039 0.313726 1
1 0.498039 0.313726 1
1 0.498039 0.313726 1
1 0.498039 0.313726 1
1 0.498039 0.313726 1
1 0.498039 0.313726 1
1 0.498039 0.313726 1
1 0.498039 0.313726 1
1 0.498039 0.313726 1
1 0.498039 0.313726 1
1 0.498039 0.313726 1
1 0.498039 0.313726 1
1 0.498039 0.313726 1
1 0.498039 0.313726 1
1 0.498039 0.313726 1
1 0.498039 0.313726 1
1 0.498039 0.313726 1
1 0.498039 0.313726 1
1 0.498039 0.313726 1
1 0.498039 0.313726 1
1 0.498039 0.313726 1
1 0.498039 0.313726 1
1 0.498039 0.313726 1
1 0.498039 0.313726 1
1 0.498039 0.313726 1
1 0.498039 0.313726 1
1 0.498039 0.313726 1
1 0.498039 0.313726 1
1 0.498039 0.313726 1
1 0.498039 0.313726 1
1 0.498039 0.313726 1
1 0.498039 0.313726 1
1 0.498039 0.313726 1
1 0.498039 0.313726 1
1 0.498039 0.313726 1
1 0.498039 0.313726 1
1 0.498039 0.313726 1
1 0.498039 0.313726 1
1 0.498039 0.313726 1
1 0.498039 0.313726 1
1 0.498039 0.313726 1
1 0.498039 0.313726 1
1 0.498039 0.313726 1
1 0.498039 0.313726 1
1 0.498039 0.313726 1
1 0.498039 0.313726 1
1 0.498039 0.313726 1
1 0.498039 0.313726 1
1 0.498039 0.313726 1
1 0.498039 0.313726 1
1 0.498039 0.313726 1
1 0.498039 0.313726 1
1 0.498039 0.313726 1
1 0.498039 0.313726 1
1 0.498039 0.313726 1
1 0.498039 0.313726 1
1 0.498039 0.313726 1
1 0.498039 0.313726 1
1 0.498039 0.313726 1
1 0.498039 0.313726 1
1 0.498039 0.313726 1
1 0.498039 0.313726 1
1 0.498039 0.313726 1
1 0.498039 0.313726 1
1 0.498039 0.313726 1
1 0.498039 0.313726 1
1 0.498039 0.313726 1
1 0.498039 0.313726 1
1 0.498039 0.313726 1
1 0.498039 0.313726 1
1 0.498039 0.313726 1
1 0.498039 0.313726 1
1 0.498039 0.313726 1
1 0.498039 0.313726 1
1 0.498039 0.313726 1
1 0.498039 0.313726 1
1 0.498039 0.313726 1
1 0.498039 0.313726 1
1 0.498039 0.313726 1
1 0.498039 0.313726 1
1 0.498039 0.313726 1
1 0.498039 0.313726 1
1 0.498039 0.313726 1
1 0.498039 0.313726 1
1 0.498039 0.313726 1
1 0.498039 0.313726 1
1 0.498039 0.313726 1
1 0.498039 0.313726 1
1 0.498039 0.313726 1
1 0.498039 0.313726 1
1 0.498039 0.313726 1
1 0.498039 0.313726 1
1 0.498039 0.313726 1
1 0.498039 0.313726 1
1 0.498039 0.313726 1
1 0.498039 0.313726 1
1 0.498039 0.313726 1
1 0.498039 0.313726 1
1 0.498039 0.313726 1
1 0.498039 0.313726 1
1 0.498039 0.313726 1
1 0.498039 0.313726 1
1 0.498039 0.313726 1
1 0.498039 0.313726 1
1 0.498039 0.313726 1
1 0.498039 0.313726 1
1 0.498039 0.313726 1
1 0.498039 0.313726 1
1 0.498039 0.313726 1
1 0.498039 0.313726 1
1 0.498039 0.313726 1
1 0.498039 0.313726 1
1 0.498039 0.313726 1
1 0.498039 0.313726 1
1 0.498039 0.313726 1
1 0.498039 0.313726 1
1 0.498039 0.313726 1
1 0.498039 0.313726 1
1 0.498039 0.313726 1
1 0.498039 0.313726 1
1 0.498039 0.313726 1
1 0.498039 0.313726 1
1 0.498039 0.313726 1
1 0.498039 0.313726 1
1 0.498039 0.313726 1
1 0.498039 0.313726 1
1 0.498039 0.313726 1
1 0.498039 0.313726 1
1 0.498039 0.313726 1
1 0.498039 0.313726 1
1 0.498039 0.313726 1
1 0.498039 0.313726 1
1 0.498039 0.313726 1
1 0.498039 0.313726 1
1 0.498039 0.313726 1
1 0.498039 0.313726 1
1 0.498039 0.313726 1
1 0.498039 0.313726 1
1 0.498039 0.313726 1
1 0.498039 0.313726 1
1 0.498039 0.313726 1
1 0.498039 0.313726 1
1 0.498039 0.313726 1
1 0.498039 0.313726 1
1 0.498039 0.313726 1
1 0.498039 0.313726 1
1 0.498039 0.313726 1
1 0.498039 0.313726 1
1 0.498039 0.313726 1
1 0.498039 0.313726 1
1 0.498039 0.313726 1
1 0.498039 0.313726 1
1 0.498039 0.313726 1
1 0.498039 0.313726 1
1 0.498039 0.313726 1
1 0.498039 0.313726 1
1 0.498039 0.313726 1
1 0.498039 0.313726 1
1 0.498039 0.313726 1
1 0.498039 0.313726 1
1 0.498039 0.313726 1
1 0.498039 0.313726 1
1 0.498039 0.313726 1
1 0.498039 0.313726 1
1 0.498039 0.313726 1
1 0.498039 0.313726 1
1 0.498039 0.313726 1
1 0.498039 0.313726 1
1 0.498039 0.313726 1
1 0.498039 0.313726 1
1 0.498039 0.313726 1
1 0.498039 0.313726 1
1 0.498039 0.313726 1
1 0.498039 0.313726 1
1 0.498039 0.313726 1
1 0.498039 0.313726 1
1 0.498039 0.313726 1
1 0.498039 0.313726 1
1 0.498039 0.313726 1
1 0.498039 0.313726 1
1 0.498039 0.313726 1
1 0.498039 0.313726 1
1 0.498039 0.313726 1
1 0.498039 0.313726 1
1 0.498039 0.313726 1
1 0.498039 0.313726 1
1 0.498039 0.313726 1
1 0.498039 0.313726 1
1 0.498039 0.313726 1
1 0.498039 0.313726 1
1 0.498039 0.313726 1
1 0.498039 0.313726 1
1 0.498039 0.313726 1
1 0.498039 0.313726 1
1 0.498039 0.313726 1
1 0.498039 0.313726 1
1 0.498039 0.313726 1
1 0.498039 0.313726 1
1 0.498039 0.313726 1
1 0.498039 0.313726 1
1 0.498039 0.313726 1
1 0.498039 0.313726 1
1 0.498039 0.313726 1
1 0.498039 0.313726 1
1 0.498039 0.313726 1
1 0.498039 0.313726 1
1 0.498039 0.313726 1
1 0.498039 0.313726 1
1 0.498039 0.313726 1
1 0.498039 0.313726 1
1 0.498039 0.313726 1
1 0.498039 0.313726 1
1 0.498039 0.313726 1
1 0.498039 0.313726 1
1 0.498039 0.313726 1
1 0.498039 0.313726 1
1 0.498039 0.313726 1
1 0.498039 0.313726 1
1 0.498039 0.313726 1
1 0.498039 0.313726 1
1 0.498039 0.313726 1
1 0.498039 0.313726 1
1 0.498039 0.313726 1
1 0.498039 0.313726 1
1 0.498039 0.313726 1
1 0.498039 0.313726 1
1 0.498039 0.313726 1
1 0.498039 0.313726 1
1 0.498039 0.313726 1
1 0.498039 0.313726 1
1 0.498039 0.313726 1
1 0.498039 0.313726 1
1 0.498039 0.313726 1
1 0.498039 0.313726 1
1 0.498039 0.313726 1
1 0.498039 0.313726 1
1 0.498039 0.313726 1
1 0.498039 0.313726 1
1 0.498039 0.313726 1
1 0.498039 0.313726 1
1 0.498039 0.313726 1
1 0.498039 0.313726 1
1 0.498039 0.313726 1
1 0.498039 0.313726 1
1 0.498039 0.313726 1
1 0.498039 0.313726 1
1 0.498039 0.313726 1
1 0.498039 0.313726 1
1 0.498039 0.313726 1
1 0.498039 0.313726 1
1 0.498039 0.313726 1
1 0.498039 0.313726 1
1 0.498039 0.313726 1
1 0.498039 0.313726 1
1 0.498039 0.313726 1
1 0.498039 0.313726 1
1 0.498039 0.313726 1
1 0.498039 0.313726 1
1 0.498039 0.313726 1
1 0.498039 0.313726 1
1 0.498039 0.313726 1
1 0.498039 0.313726 1
1 0.498039 0.313726 1
1 0.498039 0.313726 1
1 0.498039 0.313726 1
1 0.498039 0.313726 1
1 0.498039 0.313726 1
1 0.498039 0.313726 1
1 0.498039 0.313726 1
1 0.498039 0.313726 1
1 0.498039 0.313726 1
1 0.498039 0.313726 1
1 0.498039 0.313726 1
1 0.498039 0.313726 1
1 0.498039 0.313726 1
1 0.498039 0.313726 1
1 0.498039 0.313726 1
1 0.498039 0.313726 1
1 0.498039 0.313726 1
1 0.498039 0.313726 1
1 0.498039 0.313726 1
1 0.498039 0.313726 1
1 0.498039 0.313726 1
1 0.498039 0.313726 1
1 0.498039 0.313726 1
1 0.498039 0.313726 1
1 0.498039 0.313726 1
1 0.498039 0.313726 1
1 0.498039 0.313726 1
1 0.498039 0.313726 1
1 0.498039 0.313726 1
1 0.498039 0.313726 1
1 0.498039 0.313726 1
1 0.498039 0.313726 1
1 0.498039 0.313726 1
1 0.498039 0.313726 1
1 0.498039 0.313726 1
1 0.498039 0.313726 1
1 0.498039 0.313726 1
1 0.498039 0.313726 1
1 0.498039 0.313726 1
1 0.498039 0.313726 1
1 0.498039 0.313726 1
1 0.498039 0.313726 1
1 0.498039 0.313726 1
1 0.498039 0.313726 1
1 0.498039 0.313726 1
1 0.498039 0.313726 1
1 0.498039 0.313726 1
1 0.498039 0.313726 1
1 0.498039 0.313726 1
1 0.498039 0.313726 1
1 0.498039 0.313726 1
1 0.498039 0.313726 1
1 0.498039 0.313726 1
1 0.498039 0.313726 1
1 0.498039 0.313726 1
1 0.498039 0.313726 1
1 0.498039 0.313726 1
1 0.498039 0.313726 1
1 0.498039 0.313726 1
1 0.498039 0.313726 1
1 0.498039 0.313726 1
1 0.498039 0.313726 1
1 0.498039 0.313726 1
1 0.498039 0.313726 1
1 0.498039 0.313726 1
1 0.498039 0.313726 1
1 0.498039 0.313726 1
1 0.498039 0.313726 1
1 0.498039 0.313726 1
1 0.498039 0.313726 1

