# vtk DataFile Version 3.0
Gocad TSurf to VTK
ASCII
DATASET POLYDATA
POINTS 893 float
21547700.000 4555330.000 -1270.000
21548125.000 4555187.500 -1365.000
21548325.000 4555520.000 -1396.250
21548350.000 4555065.000 -1347.500
21548050.000 4555855.000 -1421.250
21547750.000 4555165.000 -1260.000
21548050.000 4555015.000 -1320.000
21547625.000 4555142.500 -1217.500
21547800.000 4555000.000 -1250.000
21546825.000 4555077.500 -842.500
21546875.000 4555465.000 -908.750
21547250.000 4554752.500 -1001.250
21546650.000 4555042.500 -720.000
21547850.000 4554835.000 -1240.000
21547650.000 4554405.000 -971.250
21548500.000 4554770.000 -1285.000
21548875.000 4555250.000 -1262.500
21548250.000 4554585.000 -1072.500
21548900.000 4554550.000 -942.500
21548600.000 4554500.000 -915.000
21549200.000 4554900.000 -1295.000
21549225.000 4554757.500 -1121.250
21549100.000 4555155.000 -1275.000
21549225.000 4555032.500 -1292.500
21549050.000 4555282.500 -1265.000
21549250.000 4555165.000 -1290.000
21549000.000 4555410.000 -1255.000
21548850.000 4555705.000 -1305.000
21549025.000 4555555.000 -1286.250
21548775.000 4555852.500 -1330.000
21549100.000 4555990.000 -1380.000
21548000.000 4556230.000 -1181.250
21548500.000 4556140.000 -1270.000
21547600.000 4555685.000 -1297.500
21547500.000 4556175.000 -1115.000
21548000.000 4556300.000 -1100.000
21547200.000 4556115.000 -1096.250
21547400.000 4556245.000 -968.750
21547225.000 4556250.000 -825.000
21547500.000 4556310.000 -905.000
21545675.000 4556305.000 98.750
21545513.594 4556374.172 265.917
21546400.000 4556070.000 -570.000
21545900.000 4556225.000 -125.000
21546500.000 4555670.000 -657.500
21546350.000 4555877.500 -540.000
21546625.000 4555472.500 -720.000
21545500.000 4555190.000 -165.000
21545650.000 4555412.500 -217.500
21545250.000 4555392.500 -32.500
21545400.000 4555625.000 -50.000
21545100.000 4555160.000 -15.000
21545025.000 4555400.000 65.000
21545400.000 4554695.000 -62.500
21545150.000 4554920.000 -1.250
21546200.000 4554360.000 -405.000
21545850.000 4554060.000 -78.750
21547150.000 4554095.000 -627.500
21546550.000 4553985.000 -300.000
21547275.000 4554337.500 -843.750
21547400.000 4554140.000 -712.500
21548950.000 4554415.000 -757.500
21549300.000 4554330.000 -600.000
21546725.000 4553797.500 -247.500
21549275.000 4554472.500 -773.750
21549250.000 4554615.000 -947.500
21549450.000 4554502.500 -798.750
21550600.000 4554720.000 -850.000
21549750.000 4554847.500 -1196.250
21550250.000 4554870.000 -1122.500
21549950.000 4555135.000 -1420.000
21550075.000 4554945.000 -1258.750
21549600.000 4555225.000 -1340.000
21550050.000 4555365.000 -1470.000
21549850.000 4555607.500 -1466.250
21549250.000 4555570.000 -1308.750
21550200.000 4555597.500 -1518.750
21550300.000 4555300.000 -1425.000
21549350.000 4555862.500 -1408.750
21550500.000 4555950.000 -1590.000
21549150.000 4555850.000 -1356.250
21549050.000 4555700.000 -1317.500
21549325.000 4556047.500 -1348.750
21550250.000 4556085.000 -1430.000
21548950.000 4556125.000 -1282.500
21549425.000 4556555.000 -1388.750
21549575.000 4556347.500 -1232.500
21549125.000 4556555.000 -1283.750
21549250.000 4556730.000 -1312.500
21548650.000 4556460.000 -1147.500
21548500.000 4556660.000 -1110.000
21548450.000 4556565.000 -1128.750
21548300.000 4556280.000 -1185.000
21548375.000 4556570.000 -1107.500
21547625.000 4556562.500 -668.750
21547500.000 4556650.000 -525.000
21547500.000 4556480.000 -715.000
21547500.000 4556565.000 -620.000
21546450.000 4556557.500 -35.000
21545539.078 4556387.305 267.040
21545671.594 4556454.359 272.850
21545523.063 4556379.191 266.338
21546100.000 4556640.000 255.000
21545671.594 4556454.359 272.850
21545950.000 4556575.000 261.250
21545800.000 4556510.000 267.500
21545671.594 4556454.359 272.850
21545671.594 4556454.359 272.850
21546400.000 4556692.500 132.500
21547000.000 4556797.500 -112.500
21546250.000 4556760.000 262.500
21546300.000 4556800.000 265.000
21546950.000 4556890.000 -2.500
21547300.000 4556860.000 -235.000
21546525.000 4556897.500 238.750
21546600.000 4556930.000 230.000
21547675.000 4556987.500 -287.500
21546750.000 4557087.500 203.750
21547050.000 4557112.500 70.000
21548200.000 4557320.000 -515.000
21546800.000 4557140.000 195.000
21547650.000 4557360.000 -152.500
21548000.000 4557570.000 -225.000
21546875.000 4557205.000 198.750
21547375.000 4557380.000 28.750
21547025.000 4557335.000 206.250
21547100.000 4557400.000 210.000
21547750.000 4557640.000 -7.500
21547175.000 4557477.500 210.000
21548375.000 4557687.500 -345.000
21548450.000 4557500.000 -522.500
21549600.000 4557935.000 -648.750
21548925.000 4557822.500 -502.500
21547575.000 4557675.000 101.250
21548600.000 4558095.000 -105.000
21547100.000 4557400.000 210.000
21549300.000 4558785.000 -433.750
21547400.000 4557710.000 210.000
21547450.000 4557775.000 210.000
21547100.000 4557400.000 210.000
21547325.000 4557632.500 210.000
21547500.000 4557840.000 210.000
21547550.000 4557905.000 210.000
21547600.000 4557970.000 210.000
21548700.000 4558505.000 -147.500
21547650.000 4558090.000 202.500
21547700.000 4558210.000 195.000
21548250.000 4558477.500 16.250
21547750.000 4558330.000 187.500
21547800.000 4558450.000 180.000
21549200.000 4558860.000 -420.000
21550575.000 4559152.500 -790.000
21550450.000 4558175.000 -795.000
21550900.000 4559350.000 -895.000
21551850.000 4559522.500 -1112.500
21552150.000 4559400.000 -1182.500
21552000.000 4559670.000 -1130.000
21552050.000 4559580.000 -1147.500
21552300.000 4559545.000 -1150.000
21552800.000 4559880.000 -1200.000
21552750.000 4559765.000 -1192.500
21552650.000 4559535.000 -1177.500
21552925.000 4559812.500 -1137.500
21553100.000 4559980.000 -1170.000
21553200.000 4559795.000 -1060.000
21553300.000 4559610.000 -950.000
21553525.000 4559985.000 -980.000
21553375.000 4559735.000 -956.250
21553600.000 4560110.000 -1005.000
21553600.000 4560110.000 -990.000
21553600.000 4560110.000 -975.000
21553525.000 4559985.000 -968.750
21553500.000 4559770.000 -870.000
21553900.000 4560090.000 -710.000
21553700.000 4559930.000 -790.000
21554100.000 4560250.000 -630.000
21554225.000 4560185.000 -531.250
21554100.000 4560250.000 -615.000
21554225.000 4560185.000 -520.000
21554350.000 4560120.000 -425.000
21554475.000 4560055.000 -333.750
21554475.000 4560055.000 -330.000
21554600.000 4559990.000 -235.000
21554250.000 4559760.000 -410.000
21553275.000 4559475.000 -946.250
21554700.000 4559862.500 -221.250
21554800.000 4559735.000 -207.500
21553550.000 4559300.000 -760.000
21554900.000 4559607.500 -193.750
21555000.000 4559480.000 -180.000
21553200.000 4559070.000 -935.000
21553225.000 4559205.000 -938.750
21554850.000 4559277.500 -382.500
21553500.000 4558970.000 -948.750
21555100.000 4559320.000 -215.000
21555200.000 4559160.000 -250.000
21554700.000 4559075.000 -585.000
21555300.000 4559000.000 -285.000
21555400.000 4558840.000 -320.000
21555225.000 4558667.500 -522.500
21555475.000 4558700.000 -448.750
21554550.000 4558405.000 -1060.000
21554700.000 4558150.000 -1130.000
21554600.000 4557995.000 -1112.500
21555625.000 4558420.000 -706.250
21555700.000 4558280.000 -835.000
21555550.000 4558560.000 -577.500
21555575.000 4558110.000 -851.250
21554950.000 4557875.000 -1015.000
21555725.000 4558120.000 -792.500
21555750.000 4557960.000 -750.000
21555800.000 4558127.500 -743.750
21555900.000 4557975.000 -652.500
21556000.000 4557822.500 -561.250
21555800.000 4557565.000 -656.250
21555325.000 4557770.000 -883.750
21556100.000 4557670.000 -470.000
21555950.000 4557500.000 -660.000
21555800.000 4557490.000 -647.500
21556100.000 4557592.500 -516.250
21556100.000 4557437.500 -608.750
21556200.000 4557600.000 -471.250
21556275.000 4557602.500 -426.250
21556300.000 4557530.000 -472.500
21556400.000 4557460.000 -473.750
21556450.000 4557535.000 -382.500
21556625.000 4557467.500 -338.750
21556800.000 4557400.000 -295.000
21556625.000 4557227.500 -393.750
21556400.000 4557220.000 -528.750
21556025.000 4557430.000 -657.500
21556450.000 4557055.000 -492.500
21556300.000 4557050.000 -582.500
21556275.000 4556882.500 -591.250
21556100.000 4557197.500 -663.750
21556100.000 4557035.000 -672.500
21555875.000 4557182.500 -645.000
21555950.000 4557025.000 -660.000
21555800.000 4557025.000 -730.000
21556025.000 4556867.500 -675.000
21555800.000 4556867.500 -780.000
21556200.000 4556880.000 -636.250
21556100.000 4556710.000 -690.000
21555800.000 4556710.000 -830.000
21555775.000 4556545.000 -698.750
21555550.000 4556545.000 -803.750
21555175.000 4556545.000 -845.000
21555450.000 4556380.000 -707.500
21555300.000 4556380.000 -777.500
21555125.000 4556215.000 -716.250
21555050.000 4556215.000 -751.250
21554800.000 4556050.000 -725.000
21554925.000 4556215.000 -765.000
21555050.000 4556380.000 -805.000
21554825.000 4556212.500 -768.750
21554850.000 4556375.000 -812.500
21554600.000 4556220.000 -915.000
21554700.000 4556380.000 -910.000
21554500.000 4556060.000 -950.000
21554450.000 4556220.000 -977.500
21554700.000 4555997.500 -752.500
21554450.000 4555950.000 -885.000
21554100.000 4555965.000 -1095.000
21554600.000 4555945.000 -780.000
21554500.000 4555892.500 -807.500
21554400.000 4555840.000 -835.000
21553650.000 4555917.500 -1415.000
21553800.000 4556090.000 -1355.000
21554175.000 4555802.500 -950.000
21553550.000 4555775.000 -1365.000
21553125.000 4555832.500 -1493.750
21553950.000 4555765.000 -1065.000
21553725.000 4555727.500 -1180.000
21553500.000 4555690.000 -1295.000
21553375.000 4555737.500 -1361.250
21552600.000 4555630.000 -1550.000
21552700.000 4555692.500 -1552.500
21552800.000 4555600.000 -1285.000
21552600.000 4555565.000 -1417.500
21553375.000 4555660.000 -1226.250
21553250.000 4555630.000 -1157.500
21552900.000 4555585.000 -1152.500
21552600.000 4555532.500 -1351.250
21553125.000 4555600.000 -1088.750
21553000.000 4555570.000 -1020.000
21552600.000 4555500.000 -1285.000
21552875.000 4555505.000 -960.000
21552575.000 4555452.500 -1158.750
21552475.000 4555427.500 -1197.500
21552750.000 4555440.000 -900.000
[...]
POINT_DATA 893
COLOR_SCALARS GocadColor 4
0.937255 0.517647 0.937255 1
0.937255 0.517647 0.937255 1
0.937255 0.517647 0.937255 1
0.937255 0.517647 0.937255 1
0.937255 0.517647 0.937255 1
0.937255 0.517647 0.937255 1
0.937255 0.517647 0.937255 1
0.937255 0.517647 0.937255 1
0.937255 0.517647 0.937255 1
0.937255 0.517647 0.937255 1
0.937255 0.517647 0.937255 1
0.937255 0.517647 0.937255 1
0.937255 0.517647 0.937255 1
0.937255 0.517647 0.937255 1
0.937255 0.517647 0.937255 1
0.937255 0.517647 0.937255 1
0.937255 0.517647 0.937255 1
0.937255 0.517647 0.937255 1
0.937255 0.517647 0.937255 1
0.937255 0.517647 0.937255 1
0.937255 0.517647 0.937255 1
0.937255 0.517647 0.937255 1
0.937255 0.517647 0.937255 1
0.937255 0.517647 0.937255 1
0.937255 0.517647 0.937255 1
0.937255 0.517647 0.937255 1
0.937255 0.517647 0.937255 1
0.937255 0.517647 0.937255 1
0.937255 0.517647 0.937255 1
0.937255 0.517647 0.937255 1
0.937255 0.517647 0.937255 1
0.937255 0.517647 0.937255 1
0.937255 0.517647 0.937255 1
0.937255 0.517647 0.937255 1
0.937255 0.517647 0.937255 1
0.937255 0.517647 0.937255 1
0.937255 0.517647 0.937255 1
0.937255 0.517647 0.937255 1
0.937255 0.517647 0.937255 1
0.937255 0.517647 0.937255 1
0.937255 0.517647 0.937255 1
0.937255 0.517647 0.937255 1
0.937255 0.517647 0.937255 1
0.937255 0.517647 0.937255 1
0.937255 0.517647 0.937255 1
0.937255 0.517647 0.937255 1
0.937255 0.517647 0.937255 1
0.937255 0.517647 0.937255 1
0.937255 0.517647 0.937255 1
0.937255 0.517647 0.937255 1
0.937255 0.517647 0.937255 1
0.937255 0.517647 0.937255 1
0.937255 0.517647 0.937255 1
0.937255 0.517647 0.937255 1
0.937255 0.517647 0.937255 1
0.937255 0.517647 0.937255 1
0.937255 0.517647 0.937255 1
0.937255 0.517647 0.937255 1
0.937255 0.517647 0.937255 1
0.937255 0.517647 0.937255 1
0.937255 0.517647 0.937255 1
0.937255 0.517647 0.937255 1
0.937255 0.517647 0.937255 1
0.937255 0.517647 0.937255 1
0.937255 0.517647 0.937255 1
0.937255 0.517647 0.937255 1
0.937255 0.517647 0.937255 1
0.937255 0.517647 0.937255 1
0.937255 0.517647 0.937255 1
0.937255 0.517647 0.937255 1
0.937255 0.517647 0.937255 1
0.937255 0.517647 0.937255 1
0.937255 0.517647 0.937255 1
0.937255 0.517647 0.937255 1
0.937255 0.517647 0.937255 1
0.937255 0.517647 0.937255 1
0.937255 0.517647 0.937255 1
0.937255 0.517647 0.937255 1
0.937255 0.517647 0.937255 1
0.937255 0.517647 0.937255 1
0.937255 0.517647 0.937255 1
0.937255 0.517647 0.937255 1
0.937255 0.517647 0.937255 1
0.937255 0.517647 0.937255 1
0.937255 0.517647 0.937255 1
0.937255 0.517647 0.937255 1
0.937255 0.517647 0.937255 1
0.937255 0.517647 0.937255 1
0.937255 0.517647 0.937255 1
0.937255 0.517647 0.937255 1
0.937255 0.517647 0.937255 1
0.937255 0.517647 0.937255 1
0.937255 0.517647 0.937255 1
0.937255 0.517647 0.937255 1
0.937255 0.517647 0.937255 1
0.937255 0.517647 0.937255 1
0.937255 0.517647 0.937255 1
0.937255 0.517647 0.937255 1
0.937255 0.517647 0.937255 1
0.937255 0.517647 0.937255 1
0.937255 0.517647 0.937255 1
0.937255 0.517647 0.937255 1
0.937255 0.517647 0.937255 1
0.937255 0.517647 0.937255 1
0.937255 0.517647 0.937255 1
0.937255 0.517647 0.937255 1
0.937255 0.517647 0.937255 1
0.937255 0.517647 0.937255 1
0.937255 0.517647 0.937255 1
0.937255 0.517647 0.937255 1
0.937255 0.517647 0.937255 1
0.937255 0.517647 0.937255 1
0.937255 0.517647 0.937255 1
0.937255 0.517647 0.937255 1
0.937255 0.517647 0.937255 1
0.937255 0.517647 0.937255 1
0.937255 0.517647 0.937255 1
0.937255 0.517647 0.937255 1
0.937255 0.517647 0.937255 1
0.937255 0.517647 0.937255 1
0.937255 0.517647 0.937255 1
0.937255 0.517647 0.937255 1
0.937255 0.517647 0.937255 1
0.937255 0.517647 0.937255 1
0.937255 0.517647 0.937255 1
0.937255 0.517647 0.937255 1
0.937255 0.517647 0.937255 1
0.937255 0.517647 0.937255 1
0.937255 0.517647 0.937255 1
0.937255 0.517647 0.937255 1
0.937255 0.517647 0.937255 1
0.937255 0.517647 0.937255 1
0.937255 0.517647 0.937255 1
0.937255 0.517647 0.937255 1
0.937255 0.517647 0.937255 1
0.937255 0.517647 0.937255 1
0.937255 0.517647 0.937255 1
0.937255 0.517647 0.937255 1
0.937255 0.517647 0.937255 1
0.937255 0.517647 0.937255 1
0.937255 0.517647 0.937255 1
0.937255 0.517647 0.937255 1
0.937255 0.517647 0.937255 1
0.937255 0.517647 0.937255 1
0.937255 0.517647 0.937255 1
0.937255 0.517647 0.937255 1
0.937255 0.517647 0.937255 1
0.937255 0.517647 0.937255 1
0.937255 0.517647 0.937255 1
0.937255 0.517647 0.937255 1
0.937255 0.517647 0.937255 1
0.937255 0.517647 0.937255 1
0.937255 0.517647 0.937255 1
0.937255 0.517647 0.937255 1
0.937255 0.517647 0.937255 1
0.937255 0.517647 0.937255 1
0.937255 0.517647 0.937255 1
0.937255 0.517647 0.937255 1
0.937255 0.517647 0.937255 1
0.937255 0.517647 0.937255 1
0.937255 0.517647 0.937255 1
0.937255 0.517647 0.937255 1
0.937255 0.517647 0.937255 1
0.937255 0.517647 0.937255 1
0.937255 0.517647 0.937255 1
0.937255 0.517647 0.937255 1
0.937255 0.517647 0.937255 1
0.937255 0.517647 0.937255 1
0.937255 0.517647 0.937255 1
0.937255 0.517647 0.937255 1
0.937255 0.517647 0.937255 1
0.937255 0.517647 0.937255 1
0.937255 0.517647 0.937255 1
0.937255 0.517647 0.937255 1
0.937255 0.517647 0.937255 1
0.937255 0.517647 0.937255 1
0.937255 0.517647 0.937255 1
0.937255 0.517647 0.937255 1
0.937255 0.517647 0.937255 1
0.937255 0.517647 0.937255 1
0.937255 0.517647 0.937255 1
0.937255 0.517647 0.937255 1
0.937255 0.517647 0.937255 1
0.937255 0.517647 0.937255 1
0.937255 0.517647 0.937255 1
0.937255 0.517647 0.937255 1
0.937255 0.517647 0.937255 1
0.937255 0.517647 0.937255 1
0.937255 0.517647 0.937255 1
0.937255 0.517647 0.937255 1
0.937255 0.517647 0.937255 1
0.937255 0.517647 0.937255 1
0.937255 0.517647 0.937255 1
0.937255 0.517647 0.937255 1
0.937255 0.517647 0.937255 1
0.937255 0.517647 0.937255 1
0.937255 0.517647 0.937255 1
0.937255 0.517647 0.937255 1
0.937255 0.517647 0.937255 1
0.937255 0.517647 0.937255 1
0.937255 0.517647 0.937255 1
0.937255 0.517647 0.937255 1
0.937255 0.517647 0.937255 1
0.937255 0.517647 0.937255 1
0.937255 0.517647 0.937255 1
0.937255 0.517647 0.937255 1
0.937255 0.517647 0.937255 1
0.937255 0.517647 0.937255 1
0.937255 0.517647 0.937255 1
0.937255 0.517647 0.937255 1
0.937255 0.517647 0.937255 1
0.937255 0.517647 0.937255 1
0.937255 0.517647 0.937255 1
0.937255 0.517647 0.937255 1
0.937255 0.517647 0.937255 1
0.937255 0.517647 0.937255 1
0.937255 0.517647 0.937255 1
0.937255 0.517647 0.937255 1
0.937255 0.517647 0.937255 1
0.937255 0.517647 0.937255 1
0.937255 0.517647 0.937255 1
0.937255 0.517647 0.937255 1
0.937255 0.517647 0.937255 1
0.937255 0.517647 0.937255 1
0.937255 0.517647 0.937255 1
0.937255 0.517647 0.937255 1
0.937255 0.517647 0.937255 1
0.937255 0.517647 0.937255 1
0.937255 0.517647 0.937255 1
0.937255 0.517647 0.937255 1
0.937255 0.517647 0.937255 1
0.937255 0.517647 0.937255 1
0.937255 0.517647 0.937255 1
0.937255 0.517647 0.937255 1
0.937255 0.517647 0.937255 1
0.937255 0.517647 0.937255 1
0.937255 0.517647 0.937255 1
0.937255 0.517647 0.937255 1
0.937255 0.517647 0.937255 1
0.937255 0.517647 0.937255 1
0.937255 0.517647 0.937255 1
0.937255 0.517647 0.937255 1
0.937255 0.517647 0.937255 1
0.937255 0.517647 0.937255 1
0.937255 0.517647 0.937255 1
0.937255 0.517647 0.937255 1
0.937255 0.517647 0.937255 1
0.937255 0.517647 0.937255 1
0.937255 0.517647 0.937255 1
0.937255 0.517647 0.937255 1
0.937255 0.517647 0.937255 1
0.937255 0.517647 0.937255 1
0.937255 0.517647 0.937255 1
0.937255 0.517647 0.937255 1
0.937255 0.517647 0.937255 1
0.937255 0.517647 0.937255 1
0.937255 0.517647 0.937255 1
0.937255 0.517647 0.937255 1
0.937255 0.517647 0.937255 1
0.937255 0.517647 0.937255 1
0.937255 0.517647 0.937255 1
0.937255 0.517647 0.937255 1
0.937255 0.517647 0.937255 1
0.937255 0.517647 0.937255 1
0.937255 0.517647 0.937255 1
0.937255 0.517647 0.937255 1
0.937255 0.517647 0.937255 1
0.937255 0.517647 0.937255 1
0.937255 0.517647 0.937255 1
0.937255 0.517647 0.937255 1
0.937255 0.517647 0.937255 1
0.937255 0.517647 0.937255 1
0.937255 0.517647 0.937255 1
0.937255 0.517647 0.937255 1
0.937255 0.517647 0.937255 1
0.937255 0.517647 0.937255 1
0.937255 0.517647 0.937255 1
0.937255 0.517647 0.937255 1
0.937255 0.517647 0.937255 1
0.937255 0.517647 0.937255 1
0.937255 0.517647 0.937255 1
0.937255 0.517647 0.937255 1
0.937255 0.517647 0.937255 1
0.937255 0.517647 0.937255 1
0.937255 0.517647 0.937255 1
0.937255 0.517647 0.937255 1
0.937255 0.517647 0.937255 1
0.937255 0.517647 0.937255 1
0.937255 0.517647 0.937255 1
0.937255 0.517647 0.937255 1
0.937255 0.517647 0.937255 1
0.937255 0.517647 0.937255 1
0.937255 0.517647 0.937255 1
0.937255 0.517647 0.937255 1
0.937255 0.517647 0.937255 1
0.937255 0.517647 0.937255 1
0.937255 0.517647 0.937255 1
0.937255 0.517647 0.937255 1
0.937255 0.517647 0.937255 1
0.937255 0.517647 0.937255 1
0.937255 0.517647 0.937255 1
0.937255 0.517647 0.937255 1
0.937255 0.517647 0.937255 1
0.937255 0.517647 0.937255 1
0.937255 0.517647 0.937255 1
0.937255 0.517647 0.937255 1
0.937255 0.517647 0.937255 1
0.937255 0.517647 0.937255 1
0.937255 0.517647 0.937255 1
0.937255 0.517647 0.937255 1
0.937255 0.517647 0.937255 1
0.937255 0.517647 0.937255 1
0.937255 0.517647 0.937255 1
0.937255 0.517647 0.937255 1
0.937255 0.517647 0.937255 1
0.937255 0.517647 0.937255 1
0.937255 0.517647 0.937255 1
0.937255 0.517647 0.937255 1
0.937255 0.517647 0.937255 1
0.937255 0.517647 0.937255 1
0.937255 0.517647 0.937255 1
0.937255 0.517647 0.937255 1
0.937255 0.517647 0.937255 1
0.937255 0.517647 0.937255 1
0.937255 0.517647 0.937255 1
0.937255 0.517647 0.937255 1
0.937255 0.517647 0.937255 1
0.937255 0.517647 0.937255 1
0.937255 0.517647 0.937255 1
0.937255 0.517647 0.937255 1
0.937255 0.517647 0.937255 1
0.937255 0.517647 0.937255 1
0.937255 0.517647 0.937255 1
0.937255 0.517647 0.937255 1
0.937255 0.517647 0.937255 1
0.937255 0.517647 0.937255 1
0.937255 0.517647 0.937255 1
0.937255 0.517647 0.937255 1
0.937255 0.517647 0.937255 1
0.937255 0.517647 0.937255 1
0.937255 0.517647 0.937255 1
0.937255 0.517647 0.937255 1
0.937255 0.517647 0.937255 1
0.937255 0.517647 0.937255 1
0.937255 0.517647 0.937255 1
0.937255 0.517647 0.937255 1
0.937255 0.517647 0.937255 1
0.937255 0.517647 0.937255 1
0.937255 0.517647 0.937255 1
0.937255 0.517647 0.937255 1
0.937255 0.517647 0.937255 1
0.937255 0.517647 0.937255 1
0.937255 0.517647 0.937255 1
0.937255 0.517647 0.937255 1
0.937255 0.517647 0.937255 1
0.937255 0.517647 0.937255 1
0.937255 0.517647 0.937255 1
0.937255 0.517647 0.937255 1
0.937255 0.517647 0.937255 1
0.937255 0.517647 0.937255 1
0.937255 0.517647 0.937255 1
0.937255 0.517647 0.937255 1
0.937255 0.517647 0.937255 1
0.937255 0.517647 0.937255 1
0.937255 0.517647 0.937255 1
0.937255 0.517647 0.937255 1
0.937255 0.517647 0.937255 1
0.937255 0.517647 0.937255 1
0.937255 0.517647 0.937255 1
0.937255 0.517647 0.937255 1
0.937255 0.517647 0.937255 1
0.937255 0.517647 0.937255 1
0.937255 0.517647 0.937255 1
0.937255 0.517647 0.937255 1
0.937255 0.517647 0.937255 1
0.937255 0.517647 0.937255 1
0.937255 0.517647 0.937255 1
0.937255 0.517647 0.937255 1
0.937255 0.517647 0.937255 1
0.937255 0.517647 0.937255 1
0.937255 0.517647 0.937255 1
0.937255 0.517647 0.937255 1
0.937255 0.517647 0.937255 1
0.937255 0.517647 0.937255 1
0.937255 0.517647 0.937255 1
0.937255 0.517647 0.937255 1
0.937255 0.517647 0.937255 1
0.937255 0.517647 0.937255 1
0.937255 0.517647 0.937255 1
0.937255 0.517647 0.937255 1
0.937255 0.517647 0.937255 1
0.937255 0.517647 0.937255 1
0.937255 0.517647 0.937255 1
0.937255 0.517647 0.937255 1
0.937255 0.517647 0.937255 1
0.937255 0.517647 0.937255 1
0.937255 0.517647 0.937255 1
0.937255 0.517647 0.937255 1
0.937255 0.517647 0.937255 1
0.937255 0.517647 0.937255 1
0.937255 0.517647 0.937255 1
0.937255 0.517647 0.937255 1
0.937255 0.517647 0.937255 1
0.937255 0.517647 0.937255 1
0.937255 0.517647 0.937255 1
0.937255 0.517647 0.937255 1
0.937255 0.517647 0.937255 1
0.937255 0.517647 0.937255 1
0.937255 0.517647 0.937255 1
0.937255 0.517647 0.937255 1
0.937255 0.517647 0.937255 1
0.937255 0.517647 0.937255 1
0.937255 0.517647 0.937255 1
0.937255 0.517647 0.937255 1
0.937255 0.517647 0.937255 1
0.937255 0.517647 0.937255 1
0.937255 0.517647 0.937255 1
0.937255 0.517647 0.937255 1
0.937255 0.517647 0.937255 1
0.937255 0.517647 0.937255 1
0.937255 0.517647 0.937255 1
0.937255 0.517647 0.937255 1
0.937255 0.517647 0.937255 1
0.937255 0.517647 0.937255 1
0.937255 0.517647 0.937255 1
0.937255 0.517647 0.937255 1
0.937255 0.517647 0.937255 1
0.937255 0.517647 0.937255 1
0.937255 0.517647 0.937255 1
0.937255 0.517647 0.937255 1
0.937255 0.517647 0.937255 1
0.937255 0.517647 0.937255 1
0.937255 0.517647 0.937255 1
0.937255 0.517647 0.937255 1
0.937255 0.517647 0.937255 1
0.937255 0.517647 0.937255 1
0.937255 0.517647 0.937255 1
0.937255 0.517647 0.937255 1
0.937255 0.517647 0.937255 1
0.937255 0.517647 0.937255 1
0.937255 0.517647 0.937255 1
0.937255 0.517647 0.937255 1
0.937255 0.517647 0.937255 1
0.937255 0.517647 0.937255 1
0.937255 0.517647 0.937255 1
0.937255 0.517647 0.937255 1
0.937255 0.517647 0.937255 1
0.937255 0.517647 0.937255 1
0.937255 0.517647 0.937255 1
0.937255 0.517647 0.937255 1
0.937255 0.517647 0.937255 1
0.937255 0.517647 0.937255 1
0.937255 0.517647 0.937255 1
0.937255 0.517647 0.937255 1
0.937255 0.517647 0.937255 1
0.937255 0.517647 0.937255 1
0.937255 0.517647 0.937255 1
0.937255 0.517647 0.937255 1
0.937255 0.517647 0.937255 1
0.937255 0.517647 0.937255 1
0.937255 0.517647 0.937255 1
0.937255 0.517647 0.937255 1
0.937255 0.517647 0.937255 1
0.937255 0.517647 0.937255 1
0.937255 0.517647 0.937255 1
0.937255 0.517647 0.937255 1
0.937255 0.517647 0.937255 1
0.937255 0.517647 0.937255 1
0.937255 0.517647 0.937255 1
0.937255 0.517647 0.937255 1
0.937255 0.517647 0.937255 1
0.937255 0.517647 0.937255 1
0.937255 0.517647 0.937255 1
0.937255 0.517647 0.937255 1
0.937255 0.517647 0.937255 1
0.937255 0.517647 0.937255 1
0.937255 0.517647 0.937255 1
0.937255 0.517647 0.937255 1
0.937255 0.517647 0.937255 1
0.937255 0.517647 0.937255 1
0.937255 0.517647 0.937255 1
0.937255 0.517647 0.937255 1
0.937255 0.517647 0.937255 1
0.937255 0.517647 0.937255 1
0.937255 0.517647 0.937255 1
0.937255 0.517647 0.937255 1
0.937255 0.517647 0.937255 1
0.937255 0.517647 0.937255 1
0.937255 0.517647 0.937255 1
0.937255 0.517647 0.937255 1
0.937255 0.517647 0.937255 1
0.937255 0.517647 0.937255 1
0.937255 0.517647 0.937255 1
0.937255 0.517647 0.937255 1
0.937255 0.517647 0.937255 1
0.937255 0.517647 0.937255 1
0.937255 0.517647 0.937255 1
0.937255 0.517647 0.937255 1
0.937255 0.517647 0.937255 1
0.937255 0.517647 0.937255 1
0.937255 0.517647 0.937255 1
0.937255 0.517647 0.937255 1
0.937255 0.517647 0.937255 1
0.937255 0.517647 0.937255 1
0.937255 0.517647 0.937255 1
0.937255 0.517647 0.937255 1
0.937255 0.517647 0.937255 1
0.937255 0.517647 0.937255 1
0.937255 0.517647 0.937255 1
0.937255 0.517647 0.937255 1
0.937255 0.517647 0.937255 1
0.937255 0.517647 0.937255 1
0.937255 0.517647 0.937255 1
0.937255 0.517647 0.937255 1
0.937255 0.517647 0.937255 1
0.937255 0.517647 0.937255 1
0.937255 0.517647 0.937255 1
0.937255 0.517647 0.937255 1
0.937255 0.517647 0.937255 1
0.937255 0.517647 0.937255 1
0.937255 0.517647 0.937255 1
0.937255 0.517647 0.937255 1
0.937255 0.517647 0.937255 1
0.937255 0.517647 0.937255 1
0.937255 0.517647 0.937255 1
0.937255 0.517647 0.937255 1
0.937255 0.517647 0.937255 1
0.937255 0.517647 0.937255 1
0.937255 0.517647 0.937255 1
0.937255 0.517647 0.937255 1
0.937255 0.517647 0.937255 1
0.937255 0.517647 0.937255 1
0.937255 0.517647 0.937255 1
0.937255 0.517647 0.937255 1
0.937255 0.517647 0.937255 1
0.937255 0.517647 0.937255 1
0.937255 0.517647 0.937255 1
0.937255 0.517647 0.937255 1
0.937255 0.517647 0.937255 1
0.937255 0.517647 0.937255 1
0.937255 0.517647 0.937255 1
0.937255 0.517647 0.937255 1
0.937255 0.517647 0.937255 1
0.937255 0.517647 0.937255 1
0.937255 0.517647 0.937255 1
0.937255 0.517647 0.937255 1
0.937255 0.517647 0.937255 1
0.937255 0.517647 0.937255 1
0.937255 0.517647 0.937255 1
0.937255 0.517647 0.937255 1
0.937255 0.517647 0.937255 1
0.937255 0.517647 0.937255 1
0.937255 0.517647 0.937255 1
0.937255 0.517647 0.937255 1
0.937255 0.517647 0.937255 1
0.937255 0.517647 0.937255 1
0.937255 0.517647 0.937255 1
0.937255 0.517647 0.937255 1
0.937255 0.517647 0.937255 1
0.937255 0.517647 0.937255 1
0.937255 0.517647 0.937255 1
0.937255 0.517647 0.937255 1
0.937255 0.517647 0.937255 1
0.937255 0.517647 0.937255 1
0.937255 0.517647 0.937255 1
0.937255 0.517647 0.937255 1
0.937255 0.517647 0.937255 1
0.937255 0.517647 0.937255 1
0.937255 0.517647 0.937255 1
0.937255 0.517647 0.937255 1
0.937255 0.517647 0.937255 1
0.937255 0.517647 0.937255 1
0.937255 0.517647 0.937255 1
0.937255 0.517647 0.937255 1
0.937255 0.517647 0.937255 1
0.937255 0.517647 0.937255 1
0.937255 0.517647 0.937255 1
0.937255 0.517647 0.937255 1
0.937255 0.517647 0.937255 1
0.937255 0.517647 0.937255 1
0.937255 0.517647 0.937255 1
0.937255 0.517647 0.937255 1
0.937255 0.517647 0.937255 1
0.937255 0.517647 0.937255 1
0.937255 0.517647 0.937255 1
0.937255 0.517647 0.937255 1
0.937255 0.517647 0.937255 1
0.937255 0.517647 0.937255 1
0.937255 0.517647 0.937255 1
0.937255 0.517647 0.937255 1
0.937255 0.517647 0.937255 1
0.937255 0.517647 0.937255 1
0.937255 0.517647 0.937255 1
0.937255 0.517647 0.937255 1
0.937255 0.517647 0.937255 1
0.937255 0.517647 0.937255 1
0.937255 0.517647 0.937255 1
0.937255 0.517647 0.937255 1
0.937255 0.517647 0.937255 1
0.937255 0.517647 0.937255 1
0.937255 0.517647 0.937255 1
0.937255 0.517647 0.937255 1
0.937255 0.517647 0.937255 1
0.937255 0.517647 0.937255 1
0.937255 0.517647 0.937255 1
0.937255 0.517647 0.937255 1
0.937255 0.517647 0.937255 1
0.937255 0.517647 0.937255 1
0.937255 0.517647 0.937255 1
0.937255 0.517647 0.937255 1
0.937255 0.517647 0.937255 1
0.937255 0.517647 0.937255 1
0.937255 0.517647 0.937255 1
0.937255 0.517647 0.937255 1
0.937255 0.517647 0.937255 1
0.937255 0.517647 0.937255 1
0.937255 0.517647 0.937255 1
0.937255 0.517647 0.937255 1
0.937255 0.517647 0.937255 1
0.937255 0.517647 0.937255 1
0.937255 0.517647 0.937255 1
0.937255 0.517647 0.937255 1
0.937255 0.517647 0.937255 1
0.937255 0.517647 0.937255 1
0.937255 0.517647 0.937255 1
0.937255 0.517647 0.937255 1
0.937255 0.517647 0.937255 1
0.937255 0.517647 0.937255 1
0.937255 0.517647 0.937255 1
0.937255 0.517647 0.937255 1
0.937255 0.517647 0.937255 1
0.937255 0.517647 0.937255 1
0.937255 0.517647 0.937255 1
0.937255 0.517647 0.937255 1
0.937255 0.517647 0.937255 1
0.937255 0.517647 0.937255 1
0.937255 0.517647 0.937255 1
0.937255 0.517647 0.937255 1
0.937255 0.517647 0.937255 1
0.937255 0.517647 0.937255 1
0.937255 0.517647 0.937255 1
0.937255 0.517647 0.937255 1
0.937255 0.517647 0.937255 1
0.937255 0.517647 0.937255 1
0.937255 0.517647 0.937255 1
0.937255 0.517647 0.937255 1
0.937255 0.517647 0.937255 1
0.937255 0.517647 0.937255 1
0.937255 0.517647 0.937255 1
0.937255 0.517647 0.937255 1
0.937255 0.517647 0.937255 1
0.937255 0.517647 0.937255 1
0.937255 0.517647 0.937255 1
0.937255 0.517647 0.937255 1
0.937255 0.517647 0.937255 1
0.937255 0.517647 0.937255 1
0.937255 0.517647 0.937255 1
0.937255 0.517647 0.937255 1
0.937255 0.517647 0.937255 1
0.937255 0.517647 0.937255 1
0.937255 0.517647 0.937255 1
0.937255 0.517647 0.937255 1
0.937255 0.517647 0.937255 1
0.937255 0.517647 0.937255 1
0.937255 0.517647 0.937255 1
0.937255 0.517647 0.937255 1
0.937255 0.517647 0.937255 1
0.937255 0.517647 0.937255 1
0.937255 0.517647 0.937255 1
0.937255 0.517647 0.937255 1
0.937255 0.517647 0.937255 1
0.937255 0.517647 0.937255 1
0.937255 0.517647 0.937255 1
0.937255 0.517647 0.937255 1
0.937255 0.517647 0.937255 1
0.937255 0.517647 0.937255 1
0.937255 0.517647 0.937255 1
0.937255 0.517647 0.937255 1
0.937255 0.517647 0.937255 1
0.937255 0.517647 0.937255 1
0.937255 0.517647 0.937255 1
0.937255 0.517647 0.937255 1
0.937255 0.517647 0.937255 1
0.937255 0.517647 0.937255 1
0.937255 0.517647 0.937255 1
0.937255 0.517647 0.937255 1
0.937255 0.517647 0.937255 1
0.937255 0.517647 0.937255 1