# vtk DataFile Version 3.0
Gocad TSurf to VTK
ASCII
DATASET POLYDATA
POINTS 104 float
21577100.000 4568415.000 353.750
21577100.000 4568300.000 272.500
21577250.000 4568350.000 195.000
21577175.000 4568210.000 152.500
21577400.000 4568630.000 280.000
21577025.000 4568390.000 388.750
21577053.688 4568443.543 406.438
21576950.000 4568245.000 342.500
21576922.875 4568355.277 403.047
21577100.000 4568185.000 191.250
21576875.000 4568102.500 296.250
21577100.000 4568070.000 110.000
21577500.000 4568420.000 22.500
21576800.000 4567970.000 250.000
21576800.000 4567960.000 250.000
21576500.000 4567982.500 348.750
21576700.000 4568165.000 377.500
21576300.000 4567800.000 320.000
21576867.781 4568318.098 401.618
21576902.922 4568341.508 402.524
21577600.000 4568210.000 -235.000
21577950.000 4568580.000 -455.000
21577675.000 4568357.500 -246.250
21577600.000 4568912.500 222.500
21578275.000 4569160.000 -583.750
21577400.000 4568790.000 335.000
21577475.000 4568870.000 362.500
21577203.766 4568654.816 412.404
21577238.813 4568724.344 414.177
21577193.563 4568634.586 411.888
21577149.094 4568546.363 409.637
21577100.000 4568491.727 407.959
21577250.000 4568740.000 412.500
21577325.000 4568845.000 401.250
21577400.000 4568870.000 362.500
21577400.000 4568950.000 390.000
21577500.000 4568950.000 390.000
21577500.000 4569095.000 383.750
21578400.000 4569280.000 -685.000
21578250.000 4569342.500 -422.500
21578600.000 4568925.000 -1052.500
21578125.000 4568522.500 -716.250
21579025.000 4569415.000 -1372.500
21578900.000 4568670.000 -1285.000
21579200.000 4569665.000 -1456.250
21579500.000 4569515.000 -1840.000
21578900.000 4569685.000 -1100.000
21579200.000 4569895.000 -1358.750
21578500.000 4569550.000 -690.000
21578750.000 4569752.500 -897.500
21578100.000 4569405.000 -160.000
21577575.000 4569095.000 383.750
21578350.000 4569970.000 -187.500
21578650.000 4569960.000 -661.250
21577800.000 4569530.000 365.000
21577725.000 4569385.000 371.250
21577875.000 4569677.500 353.750
21577950.000 4569825.000 342.500
21578225.000 4570045.000 66.250
21578750.000 4570240.000 -593.750
21578025.000 4569972.500 331.250
21578100.000 4570120.000 320.000
21578800.000 4570380.000 -560.000
21578225.000 4570250.000 198.750
21579000.000 4570195.000 -935.000
21579600.000 4570660.000 -1310.000
21579500.000 4570497.500 -1310.000
21579425.000 4570677.500 -1062.500
21578825.000 4570467.500 -500.000
21578650.000 4570575.000 -263.750
21579250.000 4570695.000 -815.000
21579075.000 4570712.500 -567.500
21578900.000 4570730.000 -320.000
21578600.000 4570640.000 -165.000
21578475.000 4570510.000 -43.750
21578200.000 4570480.000 305.000
21578175.000 4570390.000 308.750
21578150.000 4570300.000 312.500
21578125.000 4570210.000 316.250
21578125.000 4570210.000 316.250
21579300.000 4570172.500 -1310.000
21579725.000 4570585.000 -1551.250
21579850.000 4570510.000 -1792.500
21579975.000 4570435.000 -2033.750
21580100.000 4570360.000 -2275.000
21579550.000 4569915.000 -1812.500
21580050.000 4570225.000 -2285.000
21579725.000 4569867.500 -2063.750
21580150.000 4570257.500 -2382.500
21580200.000 4570155.000 -2490.000
21580250.000 4570052.500 -2597.500
21580300.000 4569950.000 -2705.000
21580175.000 4569832.500 -2572.500
21579850.000 4569650.000 -2245.000
21580050.000 4569715.000 -2440.000
21579925.000 4569597.500 -2307.500
21579800.000 4569480.000 -2175.000
21579575.000 4569277.500 -1952.500
21579350.000 4569075.000 -1730.000
21579125.000 4568872.500 -1507.500
21577650.000 4569240.000 377.500
21577700.000 4569385.000 371.250
21577600.000 4569240.000 377.500
21578000.000 4568360.000 -630.000

POLYGONS 152 608
3 69 72 73
3 96 95 93
3 100 51 50
3 58 61 60
3 6 5 0
3 23 26 25
3 35 34 26
3 36 26 23
3 20 22 12
3 33 25 34
3 55 100 50
3 51 39 50
3 52 57 56
3 72 69 68
3 37 36 51
3 53 52 49
3 39 38 48
3 25 32 28
3 98 97 42
3 30 31 4
3 63 78 61
3 3 11 12
3 9 7 10
3 86 84 85
3 56 54 52
3 54 101 55
3 41 103 43
3 83 80 47
3 102 100 101
3 81 66 80
3 90 89 86
3 1 9 3
3 16 10 7
3 36 23 24
3 74 73 75
3 22 103 21
3 5 1 0
3 102 51 100
3 48 38 46
3 89 88 86
3 8 7 5
3 50 48 49
3 37 51 102
3 84 83 47
3 63 61 62
3 62 59 64
3 36 38 39
3 1 5 7
3 35 33 34
3 40 43 42
3 63 62 69
3 62 68 69
3 6 8 5
3 35 36 37
3 93 92 87
3 97 45 42
3 59 62 58
3 9 1 7
3 66 64 80
3 92 91 87
3 12 22 21
3 52 54 50
3 42 38 40
3 103 41 21
3 76 63 75
3 42 45 44
3 80 64 47
3 24 38 36
3 38 42 44
3 32 25 33
3 48 50 39
3 41 43 40
3 99 98 42
3 67 62 65
3 11 20 12
3 22 20 103
3 94 92 93
3 24 23 21
3 38 24 40
3 15 10 16
3 47 49 46
3 15 14 10
3 63 77 78
3 77 63 76
3 45 93 87
3 91 90 87
3 45 97 96
3 24 41 40
3 58 62 61
3 70 68 67
3 64 53 49
3 14 13 10
3 78 79 61
3 85 84 47
3 84 86 88
3 59 53 64
3 9 11 3
3 67 68 62
3 65 62 64
3 43 99 42
3 81 65 66
3 90 86 87
3 52 50 49
3 85 44 45
3 54 55 50
3 75 63 74
3 31 0 4
3 101 100 55
3 2 3 12
3 17 14 15
3 59 52 53
3 46 38 44
3 82 81 80
3 23 4 21
3 47 46 44
3 82 80 83
3 27 29 4
3 31 6 0
3 51 36 39
3 19 18 7
3 71 72 68
3 41 24 21
3 48 46 49
3 8 19 7
3 58 60 57
3 85 45 87
3 27 4 25
3 27 25 28
3 47 44 85
3 69 73 74
3 4 2 12
3 78 77 79
3 94 93 95
3 26 34 25
3 2 1 3
3 52 59 58
3 0 2 4
3 7 18 16
3 85 87 86
3 26 36 35
3 0 1 2
3 11 9 10
3 69 74 63
3 58 57 52
3 64 49 47
3 29 30 4
3 66 65 64
3 13 11 10
3 4 23 25
3 4 12 21
3 45 96 93
3 70 71 68

POINT_DATA 104
COLOR_SCALARS GocadColor 4
1 0.843137 0 1
1 0.843137 0 1
1 0.843137 0 1
1 0.843137 0 1
1 0.843137 0 1
1 0.843137 0 1
1 0.843137 0 1
1 0.843137 0 1
1 0.843137 0 1
1 0.843137 0 1
1 0.843137 0 1
1 0.843137 0 1
1 0.843137 0 1
1 0.843137 0 1
1 0.843137 0 1
1 0.843137 0 1
1 0.843137 0 1
1 0.843137 0 1
1 0.843137 0 1
1 0.843137 0 1
1 0.843137 0 1
1 0.843137 0 1
1 0.843137 0 1
1 0.843137 0 1
1 0.843137 0 1
1 0.843137 0 1
1 0.843137 0 1
1 0.843137 0 1
1 0.843137 0 1
1 0.843137 0 1
1 0.843137 0 1
1 0.843137 0 1
1 0.843137 0 1
1 0.843137 0 1
1 0.843137 0 1
1 0.843137 0 1
1 0.843137 0 1
1 0.843137 0 1
1 0.843137 0 1
1 0.843137 0 1
1 0.843137 0 1
1 0.843137 0 1
1 0.843137 0 1
1 0.843137 0 1
1 0.843137 0 1
1 0.843137 0 1
1 0.843137 0 1
1 0.843137 0 1
1 0.843137 0 1
1 0.843137 0 1
1 0.843137 0 1
1 0.843137 0 1
1 0.843137 0 1
1 0.843137 0 1
1 0.843137 0 1
1 0.843137 0 1
1 0.843137 0 1
1 0.843137 0 1
1 0.843137 0 1
1 0.843137 0 1
1 0.843137 0 1
1 0.843137 0 1
1 0.843137 0 1
1 0.843137 0 1
1 0.843137 0 1
1 0.843137 0 1
1 0.843137 0 1
1 0.843137 0 1
1 0.843137 0 1
1 0.843137 0 1
1 0.843137 0 1
1 0.843137 0 1
1 0.843137 0 1
1 0.843137 0 1
1 0.843137 0 1
1 0.843137 0 1
1 0.843137 0 1
1 0.843137 0 1
1 0.843137 0 1
1 0.843137 0 1
1 0.843137 0 1
1 0.843137 0 1
1 0.843137 0 1
1 0.843137 0 1
1 0.843137 0 1
1 0.843137 0 1
1 0.843137 0 1
1 0.843137 0 1
1 0.843137 0 1
1 0.843137 0 1
1 0.843137 0 1
1 0.843137 0 1
1 0.843137 0 1
1 0.843137 0 1
1 0.843137 0 1
1 0.843137 0 1
1 0.843137 0 1
1 0.843137 0 1
1 0.843137 0 1
1 0.843137 0 1
1 0.843137 0 1
1 0.843137 0 1
1 0.843137 0 1
1 0.843137 0 1

