# vtk DataFile Version 3.0
Gocad TSurf to VTK
ASCII
DATASET POLYDATA
POINTS 87 float
21607700.000 4568062.500 -3618.750
21607600.000 4568290.000 -3570.000
21607575.000 4567900.000 -3692.500
21607800.000 4567835.000 -3667.500
21607850.000 4568265.000 -3547.500
21607900.000 4567970.000 -3620.000
21607800.000 4568560.000 -3475.000
21608350.000 4568580.000 -3335.000
21607525.000 4568652.500 -3542.500
21607450.000 4569015.000 -3515.000
21607550.000 4569150.000 -3467.500
21608125.000 4569372.500 -3272.500
21607375.000 4569377.500 -3487.500
21607425.000 4569445.000 -3463.750
21607850.000 4569495.000 -3335.000
21607300.000 4569740.000 -3460.000
21607575.000 4569617.500 -3397.500
21607700.000 4569980.000 -3375.000
21607875.000 4569805.000 -3333.750
21607700.000 4569990.000 -3375.000
21608025.000 4569932.500 -3281.250
21608150.000 4569705.000 -3257.500
21607900.000 4570160.000 -3305.000
21608050.000 4569615.000 -3292.500
21608275.000 4569477.500 -3233.750
21608400.000 4569250.000 -3210.000
21608525.000 4569087.500 -3206.250
21608650.000 4568925.000 -3202.500
21608625.000 4568590.000 -3265.000
21608775.000 4568755.000 -3198.750
21608900.000 4568590.000 -3195.000
21608600.000 4567610.000 -3807.500
21607900.000 4567607.500 -3716.250
21609125.000 4568027.500 -3686.250
21609200.000 4567840.000 -3850.000
21609600.000 4569252.500 -3010.000
21610300.000 4569915.000 -2825.000
21611000.000 4570577.500 -2640.000
21611700.000 4571240.000 -2455.000
21610550.000 4569220.000 -3187.500
21608975.000 4566932.500 -3966.250
21611750.000 4571080.000 -2472.500
21611800.000 4570920.000 -2490.000
21611750.000 4571080.000 -2472.500
21611850.000 4570760.000 -2507.500
21611900.000 4570600.000 -2525.000
21608900.000 4566630.000 -4005.000
21611600.000 4569920.000 -2745.000
21610250.000 4567567.500 -3555.000
21611950.000 4570387.500 -2560.000
21612000.000 4570175.000 -2595.000
21612050.000 4569962.500 -2630.000
21611000.000 4568560.000 -3185.000
21612100.000 4569750.000 -2665.000
21610700.000 4567880.000 -3405.000
21612075.000 4569427.500 -2922.500
21609900.000 4566680.000 -3835.000
21610400.000 4566987.500 -3895.000
21609650.000 4566667.500 -3877.500
21609425.000 4566342.500 -3988.750
21608950.000 4566005.000 -4142.500
21608475.000 4565667.500 -4296.250
21608250.000 4566190.000 -4305.000
21608000.000 4565330.000 -4450.000
21607900.000 4565435.000 -4488.750
21607800.000 4565540.000 -4527.500
21607700.000 4565645.000 -4566.250
21607600.000 4565750.000 -4605.000
21607700.000 4566157.500 -4395.000
21607575.000 4565995.000 -4468.750
21607550.000 4566240.000 -4332.500
21607800.000 4566565.000 -4185.000
21607525.000 4566485.000 -4196.250
21607525.000 4567120.000 -3937.500
21607500.000 4566730.000 -4060.000
21607550.000 4567510.000 -3815.000
21611000.000 4567887.500 -3572.500
21610900.000 4567295.000 -3955.000
21611675.000 4568315.000 -3622.500
21611600.000 4567902.500 -3907.500
21612000.000 4568460.000 -3695.000
21612200.000 4569650.000 -2875.000
21611900.000 4567910.000 -4075.000
21611400.000 4567602.500 -4015.000
21612175.000 4569675.000 -2822.500
21612150.000 4569700.000 -2770.000
21612125.000 4569725.000 -2717.500

POLYGONS 121 484
3 47 46 48
3 29 28 30
3 8 1 6
3 28 27 7
3 20 19 18
3 24 23 11
3 10 11 14
3 45 44 39
3 71 68 31
3 86 55 85
3 5 28 7
3 71 72 70
3 21 20 18
3 16 14 18
3 21 18 23
3 46 45 39
3 34 33 31
3 54 76 78
3 52 51 47
3 36 33 34
3 52 47 48
3 17 15 16
3 40 46 39
3 34 62 40
3 51 52 53
3 31 32 71
3 5 0 3
3 17 16 18
3 57 54 56
3 28 5 32
3 51 50 47
3 10 9 6
3 5 3 32
3 74 72 71
3 49 45 47
3 86 53 55
3 77 83 76
3 43 38 41
3 9 10 12
3 68 69 67
3 30 31 33
3 38 37 34
3 44 42 39
3 35 30 33
3 62 65 64
3 68 71 70
3 78 79 82
3 83 79 76
3 4 5 7
3 35 37 30
3 0 1 2
3 68 70 69
3 76 54 57
3 32 3 75
3 48 56 54
3 62 63 61
3 46 61 60
3 60 59 58
3 67 66 62
3 58 59 56
3 30 28 31
3 80 81 55
3 24 21 23
3 6 4 7
3 10 14 13
3 49 47 50
3 7 27 26
3 46 40 62
3 28 32 31
3 78 80 55
3 52 48 54
3 75 3 2
3 55 54 78
3 25 6 7
3 20 22 19
3 55 53 54
3 64 63 62
3 26 25 7
3 38 34 39
3 77 76 57
3 4 0 5
3 78 82 80
3 15 12 13
3 37 36 34
3 32 73 71
3 79 83 82
3 42 43 41
3 46 60 58
3 4 1 0
3 81 84 55
3 79 78 76
3 62 61 46
3 23 18 14
3 25 24 11
3 34 67 62
3 41 38 39
3 73 74 71
3 66 65 62
3 9 8 6
3 27 28 29
3 36 37 35
3 41 39 42
3 48 46 58
3 73 32 75
3 39 34 40
3 36 35 33
3 11 10 6
3 23 14 11
3 48 58 56
3 18 19 17
3 68 34 31
3 3 0 2
3 47 45 46
3 12 10 13
3 84 85 55
3 13 14 16
3 25 11 6
3 15 13 16
3 68 67 34
3 6 1 4
3 52 54 53

POINT_DATA 87
COLOR_SCALARS GocadColor 4
1 0.74902 0.795026 1
1 0.74902 0.795026 1
1 0.74902 0.795026 1
1 0.74902 0.795026 1
1 0.74902 0.795026 1
1 0.74902 0.795026 1
1 0.74902 0.795026 1
1 0.74902 0.795026 1
1 0.74902 0.795026 1
1 0.74902 0.795026 1
1 0.74902 0.795026 1
1 0.74902 0.795026 1
1 0.74902 0.795026 1
1 0.74902 0.795026 1
1 0.74902 0.795026 1
1 0.74902 0.795026 1
1 0.74902 0.795026 1
1 0.74902 0.795026 1
1 0.74902 0.795026 1
1 0.74902 0.795026 1
1 0.74902 0.795026 1
1 0.74902 0.795026 1
1 0.74902 0.795026 1
1 0.74902 0.795026 1
1 0.74902 0.795026 1
1 0.74902 0.795026 1
1 0.74902 0.795026 1
1 0.74902 0.795026 1
1 0.74902 0.795026 1
1 0.74902 0.795026 1
1 0.74902 0.795026 1
1 0.74902 0.795026 1
1 0.74902 0.795026 1
1 0.74902 0.795026 1
1 0.74902 0.795026 1
1 0.74902 0.795026 1
1 0.74902 0.795026 1
1 0.74902 0.795026 1
1 0.74902 0.795026 1
1 0.74902 0.795026 1
1 0.74902 0.795026 1
1 0.74902 0.795026 1
1 0.74902 0.795026 1
1 0.74902 0.795026 1
1 0.74902 0.795026 1
1 0.74902 0.795026 1
1 0.74902 0.795026 1
1 0.74902 0.795026 1
1 0.74902 0.795026 1
1 0.74902 0.795026 1
1 0.74902 0.795026 1
1 0.74902 0.795026 1
1 0.74902 0.795026 1
1 0.74902 0.795026 1
1 0.74902 0.795026 1
1 0.74902 0.795026 1
1 0.74902 0.795026 1
1 0.74902 0.795026 1
1 0.74902 0.795026 1
1 0.74902 0.795026 1
1 0.74902 0.795026 1
1 0.74902 0.795026 1
1 0.74902 0.795026 1
1 0.74902 0.795026 1
1 0.74902 0.795026 1
1 0.74902 0.795026 1
1 0.74902 0.795026 1
1 0.74902 0.795026 1
1 0.74902 0.795026 1
1 0.74902 0.795026 1
1 0.74902 0.795026 1
1 0.74902 0.795026 1
1 0.74902 0.795026 1
1 0.74902 0.795026 1
1 0.74902 0.795026 1
1 0.74902 0.795026 1
1 0.74902 0.795026 1
1 0.74902 0.795026 1
1 0.74902 0.795026 1
1 0.74902 0.795026 1
1 0.74902 0.795026 1
1 0.74902 0.795026 1
1 0.74902 0.795026 1
1 0.74902 0.795026 1
1 0.74902 0.795026 1
1 0.74902 0.795026 1
1 0.74902 0.795026 1

