# vtk DataFile Version 3.0
Gocad TSurf to VTK
ASCII
DATASET POLYDATA
POINTS 466 float
21608125.000 4578742.500 -185.000
21608425.000 4578667.500 -151.250
21608250.000 4578895.000 -230.000
21608450.000 4578845.000 -207.500
21608050.000 4578950.000 -195.000
21608400.000 4578490.000 -95.000
21608650.000 4578790.000 -222.500
21608025.000 4578770.000 -167.500
21608000.000 4578432.500 -122.500
21607650.000 4578335.000 -117.500
21608000.000 4578117.500 -87.500
21607850.000 4578300.000 -105.000
21608800.000 4578145.000 147.500
21607875.000 4577802.500 -31.250
21609300.000 4578660.000 20.000
21609700.000 4578230.000 390.000
21610000.000 4578800.000 70.000
21608950.000 4579490.000 -377.500
21609925.000 4578657.500 150.000
21609850.000 4578515.000 230.000
21609775.000 4578372.500 310.000
21609975.000 4579040.000 31.250
21608500.000 4579200.000 -320.000
21608650.000 4579560.000 -362.500
21608475.000 4579022.500 -263.750
21608375.000 4579047.500 -275.000
21608100.000 4579310.000 -250.000
21608075.000 4579130.000 -222.500
21608450.000 4579397.500 -316.250
21608075.000 4579492.500 -285.000
21608400.000 4579595.000 -312.500
21607700.000 4579410.000 -320.000
21607775.000 4579567.500 -337.500
21607975.000 4579147.500 -228.750
21607675.000 4579222.500 -281.250
21607850.000 4578985.000 -207.500
21607650.000 4579035.000 -242.500
21607600.000 4578660.000 -165.000
21607025.000 4578967.500 -447.500
21607475.000 4579262.500 -362.500
21606800.000 4578820.000 -490.000
21606825.000 4579027.500 -531.250
21606850.000 4578460.000 -230.000
21607250.000 4578380.000 -67.500
21606675.000 4578660.000 -423.750
21606550.000 4578500.000 -357.500
21606425.000 4578340.000 -291.250
21606875.000 4578280.000 -100.000
21607075.000 4578240.000 -18.750
21606300.000 4578180.000 -225.000
21606450.000 4577825.000 -160.000
21606150.000 4578037.500 -260.000
21606825.000 4577942.500 -1.250
21606675.000 4577627.500 -63.750
21607050.000 4577912.500 -1.250
21607275.000 4577877.500 43.750
21606900.000 4577765.000 -32.500
21607350.000 4577695.000 57.500
21607500.000 4577330.000 85.000
21607625.000 4577487.500 46.250
21606600.000 4577470.000 -95.000
21607425.000 4577087.500 63.750
21606675.000 4577197.500 -106.250
21607675.000 4577072.500 186.250
21607275.000 4576602.500 21.250
21608600.000 4577150.000 515.000
21608500.000 4576937.500 508.750
21608300.000 4577555.000 222.500
21608750.000 4577312.500 483.750
21607700.000 4578010.000 -70.000
21609200.000 4577800.000 390.000
21609000.000 4577972.500 268.750
21609325.000 4577907.500 390.000
21609450.000 4578015.000 390.000
21609575.000 4578122.500 390.000
21607775.000 4578155.000 -87.500
21607300.000 4578210.000 -18.750
21607675.000 4578172.500 -93.750
21607400.000 4578360.000 -67.500
21607850.000 4576815.000 287.500
21608500.000 4576937.500 508.750
21608400.000 4576725.000 502.500
21608300.000 4576512.500 496.250
21608200.000 4576300.000 490.000
21607300.000 4576065.000 112.500
21608000.000 4576167.500 423.750
21607400.000 4575770.000 225.000
21608175.000 4576167.500 510.000
21608150.000 4576035.000 530.000
21608125.000 4575902.500 550.000
21608108.844 4575816.875 562.924
21608073.500 4575770.000 556.938
21608070.656 4575761.195 555.956
21607575.000 4575612.500 318.750
21607250.000 4575267.500 86.250
21608022.664 4575612.500 539.383
21607983.141 4575490.059 525.735
21607967.484 4575441.551 520.329
21607963.727 4575379.266 521.443
21607957.055 4575268.648 523.423
21607200.000 4575100.000 40.000
21607982.039 4575134.758 526.602
21608004.617 4575066.078 528.464
21607900.000 4574985.000 450.000
21607250.000 4574810.000 20.000
21608053.320 4574998.629 530.920
21608144.313 4574872.617 535.510
21607700.000 4574830.000 300.000
21608146.430 4574869.684 535.617
21608151.313 4574862.926 535.863
21608175.000 4574735.000 506.250
21607500.000 4574675.000 150.000
21608200.000 4574600.000 475.000
21607450.000 4574205.000 -7.500
21607275.000 4574665.000 10.000
21608050.000 4574422.500 352.500
21607525.000 4574047.500 -11.250
21608250.000 4574455.000 475.000
21608300.000 4574310.000 475.000
21608350.000 4574165.000 475.000
21608400.000 4574020.000 475.000
21607875.000 4573820.000 142.500
21607250.000 4573505.000 -77.500
21608475.000 4573917.500 510.000
21608150.000 4573750.000 300.000
21608550.000 4573815.000 545.000
21608595.398 4573752.953 566.187
21608595.617 4573751.566 566.186
21608599.953 4573714.477 565.236
21608608.828 4573638.520 563.291
21608609.281 4573633.094 563.043
21606900.000 4573120.000 -140.000
21607075.000 4573312.500 -108.750
21608562.625 4573572.602 557.379
21608571.938 4573517.344 555.113
21608275.000 4573302.500 416.250
21606950.000 4572750.000 -160.000
21608598.086 4573419.426 551.637
21608618.656 4573342.363 548.902
21607425.000 4572687.500 18.750
21608642.047 4573254.766 545.792
21608672.922 4573139.129 541.688
21608701.438 4573032.328 537.897
21607000.000 4572380.000 -180.000
21608710.336 4572998.980 536.713
21608815.820 4572921.016 538.687
21608675.000 4572812.500 458.750
21607300.000 4571967.500 -243.750
21609049.734 4572780.195 544.681
21609133.328 4572729.875 546.823
21609188.680 4572692.641 546.699
21607400.000 4571830.000 -265.000
21609369.609 4572570.949 546.292
21609409.445 4572539.688 546.079
21609421.359 4572527.379 544.953
21609275.000 4572355.000 442.500
21608300.000 4571627.500 -88.750
21609482.609 4572427.664 536.791
21609552.219 4572314.340 527.515
21609554.195 4572311.125 527.252
21609652.016 4572174.871 521.045
21608600.000 4571560.000 -30.000
21609690.000 4572121.957 518.635
21609793.539 4571977.738 512.066
21609791.664 4571972.941 512.137
21609050.000 4571345.000 257.500
21608150.000 4571135.000 -85.000
21609706.789 4571756.102 515.351
21609624.602 4571546.109 518.464
21609549.945 4571355.371 521.292
21609545.281 4571342.641 521.651
21609472.273 4571143.246 527.287
21607925.000 4570922.500 -112.500
21609459.492 4571124.664 528.088
21607700.000 4570710.000 -140.000
21607600.000 4570935.000 -167.500
21609456.117 4571119.762 528.300
21609458.273 4571093.582 528.498
21609225.000 4570890.000 436.250
21608225.000 4570305.000 47.500
21609489.063 4570953.813 528.671
21609491.742 4570941.621 528.686
21609498.047 4570810.188 521.315
21609504.266 4570680.551 514.046
21608675.000 4570410.000 218.750
21609507.594 4570611.211 510.158
21609515.070 4570455.410 501.421
21608400.000 4570170.000 110.000
21609515.820 4570439.656 500.538
21609509.883 4570391.660 497.707
21609300.000 4570232.500 422.500
21608400.000 4569860.000 105.000
21609555.164 4570297.141 493.095
21609598.031 4570207.664 488.730
21608700.000 4569777.500 207.500
21609627.445 4570146.270 485.734
21609628.797 4570143.453 485.597
21609682.711 4570026.453 479.383
21609736.719 4569909.250 473.158
21608400.000 4569550.000 100.000
21609745.219 4569890.789 472.178
21609805.125 4569858.051 471.119
21609600.000 4569702.500 376.250
21608475.000 4569417.500 65.000
21609920.063 4569777.180 468.001
21610019.250 4569707.395 465.311
21610050.000 4569650.000 452.500
21609000.000 4569247.500 98.750
21610019.250 4569707.395 465.311
21610125.000 4569510.000 421.250
21610019.250 4569707.395 465.311
21610200.000 4569370.000 390.000
21608700.000 4569020.000 -40.000
21608625.000 4569152.500 -5.000
21608950.000 4568930.000 88.750
21608725.000 4568860.000 18.750
21610075.000 4569192.500 411.250
21609450.000 4568750.000 346.250
21609000.000 4568622.500 218.750
21609986.406 4569066.695 426.311
21609945.063 4569033.125 423.667
21609986.992 4569064.891 426.211
21609899.500 4568988.234 423.789
21609691.789 4568783.594 424.346
21609598.305 4568696.609 422.628
21609100.000 4568490.000 305.000
21609508.055 4568605.617 420.615
21608800.000 4568380.000 195.000
21608775.000 4568540.000 136.250
21608625.000 4568507.500 101.250
21608450.000 4568635.000 7.500
21608275.000 4568762.500 -86.250
21608100.000 4568890.000 -180.000
21608175.000 4569055.000 -110.000
21608025.000 4569020.000 -156.250
21607950.000 4569150.000 -132.500
21607875.000 4569280.000 -108.750
21608325.000 4569385.000 30.000
21607800.000 4569410.000 -85.000
21607950.000 4569600.000 -36.250
21607700.000 4569545.000 -137.500
21607600.000 4569680.000 -190.000
21608100.000 4569790.000 12.500
21607500.000 4569815.000 -242.500
21607400.000 4569950.000 -295.000
21607475.000 4570140.000 -256.250
21607625.000 4570520.000 -178.750
21607350.000 4570107.500 -308.750
21607300.000 4570265.000 -322.500
21607250.000 4570422.500 -336.250
21607200.000 4570580.000 -350.000
21607275.000 4570725.000 -311.250
21607100.000 4570662.500 -381.250
21607000.000 4570745.000 -412.500
21606900.000 4570827.500 -443.750
21607550.000 4571047.500 -181.250
21606800.000 4570910.000 -475.000
21607200.000 4571405.000 -327.500
21607475.000 4571327.500 -212.500
21606825.000 4571095.000 -471.250
21606850.000 4571280.000 -467.500
21607050.000 4571527.500 -393.750
21607425.000 4571662.500 -247.500
21606875.000 4571465.000 -463.750
21606900.000 4571650.000 -460.000
21606875.000 4571812.500 -415.000
21607100.000 4572065.000 -272.500
21606950.000 4572182.500 -276.250
21606850.000 4571975.000 -370.000
21606825.000 4572137.500 -325.000
21606800.000 4572300.000 -280.000
21606900.000 4572545.000 -201.250
21606750.000 4572485.000 -276.250
21606800.000 4572710.000 -222.500
21606700.000 4572670.000 -272.500
21606700.000 4572875.000 -243.750
21606650.000 4572855.000 -268.750
21606600.000 4573040.000 -265.000
21606650.000 4573215.000 -257.500
21606950.000 4573292.500 -136.250
21606450.000 4573180.000 -376.250
21606700.000 4573390.000 -250.000
21606300.000 4573320.000 -487.500
21606850.000 4573430.000 -187.500
21607000.000 4573465.000 -132.500
21606825.000 4573585.000 -211.250
21606150.000 4573460.000 -598.750
21606800.000 4573740.000 -235.000
21607050.000 4573637.500 -128.750
21606000.000 4573600.000 -710.000
21606125.000 4573810.000 -585.000
21606650.000 4574090.000 -222.500
21605925.000 4573787.500 -668.750
21605850.000 4573975.000 -627.500
21605775.000 4574162.500 -586.250
21606375.000 4574230.000 -335.000
21605700.000 4574350.000 -545.000
[...]
POINT_DATA 466
COLOR_SCALARS GocadColor 4
0.392157 0.584314 0.929412 1
0.392157 0.584314 0.929412 1
0.392157 0.584314 0.929412 1
0.392157 0.584314 0.929412 1
0.392157 0.584314 0.929412 1
0.392157 0.584314 0.929412 1
0.392157 0.584314 0.929412 1
0.392157 0.584314 0.929412 1
0.392157 0.584314 0.929412 1
0.392157 0.584314 0.929412 1
0.392157 0.584314 0.929412 1
0.392157 0.584314 0.929412 1
0.392157 0.584314 0.929412 1
0.392157 0.584314 0.929412 1
0.392157 0.584314 0.929412 1
0.392157 0.584314 0.929412 1
0.392157 0.584314 0.929412 1
0.392157 0.584314 0.929412 1
0.392157 0.584314 0.929412 1
0.392157 0.584314 0.929412 1
0.392157 0.584314 0.929412 1
0.392157 0.584314 0.929412 1
0.392157 0.584314 0.929412 1
0.392157 0.584314 0.929412 1
0.392157 0.584314 0.929412 1
0.392157 0.584314 0.929412 1
0.392157 0.584314 0.929412 1
0.392157 0.584314 0.929412 1
0.392157 0.584314 0.929412 1
0.392157 0.584314 0.929412 1
0.392157 0.584314 0.929412 1
0.392157 0.584314 0.929412 1
0.392157 0.584314 0.929412 1
0.392157 0.584314 0.929412 1
0.392157 0.584314 0.929412 1
0.392157 0.584314 0.929412 1
0.392157 0.584314 0.929412 1
0.392157 0.584314 0.929412 1
0.392157 0.584314 0.929412 1
0.392157 0.584314 0.929412 1
0.392157 0.584314 0.929412 1
0.392157 0.584314 0.929412 1
0.392157 0.584314 0.929412 1
0.392157 0.584314 0.929412 1
0.392157 0.584314 0.929412 1
0.392157 0.584314 0.929412 1
0.392157 0.584314 0.929412 1
0.392157 0.584314 0.929412 1
0.392157 0.584314 0.929412 1
0.392157 0.584314 0.929412 1
0.392157 0.584314 0.929412 1
0.392157 0.584314 0.929412 1
0.392157 0.584314 0.929412 1
0.392157 0.584314 0.929412 1
0.392157 0.584314 0.929412 1
0.392157 0.584314 0.929412 1
0.392157 0.584314 0.929412 1
0.392157 0.584314 0.929412 1
0.392157 0.584314 0.929412 1
0.392157 0.584314 0.929412 1
0.392157 0.584314 0.929412 1
0.392157 0.584314 0.929412 1
0.392157 0.584314 0.929412 1
0.392157 0.584314 0.929412 1
0.392157 0.584314 0.929412 1
0.392157 0.584314 0.929412 1
0.392157 0.584314 0.929412 1
0.392157 0.584314 0.929412 1
0.392157 0.584314 0.929412 1
0.392157 0.584314 0.929412 1
0.392157 0.584314 0.929412 1
0.392157 0.584314 0.929412 1
0.392157 0.584314 0.929412 1
0.392157 0.584314 0.929412 1
0.392157 0.584314 0.929412 1
0.392157 0.584314 0.929412 1
0.392157 0.584314 0.929412 1
0.392157 0.584314 0.929412 1
0.392157 0.584314 0.929412 1
0.392157 0.584314 0.929412 1
0.392157 0.584314 0.929412 1
0.392157 0.584314 0.929412 1
0.392157 0.584314 0.929412 1
0.392157 0.584314 0.929412 1
0.392157 0.584314 0.929412 1
0.392157 0.584314 0.929412 1
0.392157 0.584314 0.929412 1
0.392157 0.584314 0.929412 1
0.392157 0.584314 0.929412 1
0.392157 0.584314 0.929412 1
0.392157 0.584314 0.929412 1
0.392157 0.584314 0.929412 1
0.392157 0.584314 0.929412 1
0.392157 0.584314 0.929412 1
0.392157 0.584314 0.929412 1
0.392157 0.584314 0.929412 1
0.392157 0.584314 0.929412 1
0.392157 0.584314 0.929412 1
0.392157 0.584314 0.929412 1
0.392157 0.584314 0.929412 1
0.392157 0.584314 0.929412 1
0.392157 0.584314 0.929412 1
0.392157 0.584314 0.929412 1
0.392157 0.584314 0.929412 1
0.392157 0.584314 0.929412 1
0.392157 0.584314 0.929412 1
0.392157 0.584314 0.929412 1
0.392157 0.584314 0.929412 1
0.392157 0.584314 0.929412 1
0.392157 0.584314 0.929412 1
0.392157 0.584314 0.929412 1
0.392157 0.584314 0.929412 1
0.392157 0.584314 0.929412 1
0.392157 0.584314 0.929412 1
0.392157 0.584314 0.929412 1
0.392157 0.584314 0.929412 1
0.392157 0.584314 0.929412 1
0.392157 0.584314 0.929412 1
0.392157 0.584314 0.929412 1
0.392157 0.584314 0.929412 1
0.392157 0.584314 0.929412 1
0.392157 0.584314 0.929412 1
0.392157 0.584314 0.929412 1
0.392157 0.584314 0.929412 1
0.392157 0.584314 0.929412 1
0.392157 0.584314 0.929412 1
0.392157 0.584314 0.929412 1
0.392157 0.584314 0.929412 1
0.392157 0.584314 0.929412 1
0.392157 0.584314 0.929412 1
0.392157 0.584314 0.929412 1
0.392157 0.584314 0.929412 1
0.392157 0.584314 0.929412 1
0.392157 0.584314 0.929412 1
0.392157 0.584314 0.929412 1
0.392157 0.584314 0.929412 1
0.392157 0.584314 0.929412 1
0.392157 0.584314 0.929412 1
0.392157 0.584314 0.929412 1
0.392157 0.584314 0.929412 1
0.392157 0.584314 0.929412 1
0.392157 0.584314 0.929412 1
0.392157 0.584314 0.929412 1
0.392157 0.584314 0.929412 1
0.392157 0.584314 0.929412 1
0.392157 0.584314 0.929412 1
0.392157 0.584314 0.929412 1
0.392157 0.584314 0.929412 1
0.392157 0.584314 0.929412 1
0.392157 0.584314 0.929412 1
0.392157 0.584314 0.929412 1
0.392157 0.584314 0.929412 1
0.392157 0.584314 0.929412 1
0.392157 0.584314 0.929412 1
0.392157 0.584314 0.929412 1
0.392157 0.584314 0.929412 1
0.392157 0.584314 0.929412 1
0.392157 0.584314 0.929412 1
0.392157 0.584314 0.929412 1
0.392157 0.584314 0.929412 1
0.392157 0.584314 0.929412 1
0.392157 0.584314 0.929412 1
0.392157 0.584314 0.929412 1
0.392157 0.584314 0.929412 1
0.392157 0.584314 0.929412 1
0.392157 0.584314 0.929412 1
0.392157 0.584314 0.929412 1
0.392157 0.584314 0.929412 1
0.392157 0.584314 0.929412 1
0.392157 0.584314 0.929412 1
0.392157 0.584314 0.929412 1
0.392157 0.584314 0.929412 1
0.392157 0.584314 0.929412 1
0.392157 0.584314 0.929412 1
0.392157 0.584314 0.929412 1
0.392157 0.584314 0.929412 1
0.392157 0.584314 0.929412 1
0.392157 0.584314 0.929412 1
0.392157 0.584314 0.929412 1
0.392157 0.584314 0.929412 1
0.392157 0.584314 0.929412 1
0.392157 0.584314 0.929412 1
0.392157 0.584314 0.929412 1
0.392157 0.584314 0.929412 1
0.392157 0.584314 0.929412 1
0.392157 0.584314 0.929412 1
0.392157 0.584314 0.929412 1
0.392157 0.584314 0.929412 1
0.392157 0.584314 0.929412 1
0.392157 0.584314 0.929412 1
0.392157 0.584314 0.929412 1
0.392157 0.584314 0.929412 1
0.392157 0.584314 0.929412 1
0.392157 0.584314 0.929412 1
0.392157 0.584314 0.929412 1
0.392157 0.584314 0.929412 1
0.392157 0.584314 0.929412 1
0.392157 0.584314 0.929412 1
0.392157 0.584314 0.929412 1
0.392157 0.584314 0.929412 1
0.392157 0.584314 0.929412 1
0.392157 0.584314 0.929412 1
0.392157 0.584314 0.929412 1
0.392157 0.584314 0.929412 1
0.392157 0.584314 0.929412 1
0.392157 0.584314 0.929412 1
0.392157 0.584314 0.929412 1
0.392157 0.584314 0.929412 1
0.392157 0.584314 0.929412 1
0.392157 0.584314 0.929412 1
0.392157 0.584314 0.929412 1
0.392157 0.584314 0.929412 1
0.392157 0.584314 0.929412 1
0.392157 0.584314 0.929412 1
0.392157 0.584314 0.929412 1
0.392157 0.584314 0.929412 1
0.392157 0.584314 0.929412 1
0.392157 0.584314 0.929412 1
0.392157 0.584314 0.929412 1
0.392157 0.584314 0.929412 1
0.392157 0.584314 0.929412 1
0.392157 0.584314 0.929412 1
0.392157 0.584314 0.929412 1
0.392157 0.584314 0.929412 1
0.392157 0.584314 0.929412 1
0.392157 0.584314 0.929412 1
0.392157 0.584314 0.929412 1
0.392157 0.584314 0.929412 1
0.392157 0.584314 0.929412 1
0.392157 0.584314 0.929412 1
0.392157 0.584314 0.929412 1
0.392157 0.584314 0.929412 1
0.392157 0.584314 0.929412 1
0.392157 0.584314 0.929412 1
0.392157 0.584314 0.929412 1
0.392157 0.584314 0.929412 1
0.392157 0.584314 0.929412 1
0.392157 0.584314 0.929412 1
0.392157 0.584314 0.929412 1
0.392157 0.584314 0.929412 1
0.392157 0.584314 0.929412 1
0.392157 0.584314 0.929412 1
0.392157 0.584314 0.929412 1
0.392157 0.584314 0.929412 1
0.392157 0.584314 0.929412 1
0.392157 0.584314 0.929412 1
0.392157 0.584314 0.929412 1
0.392157 0.584314 0.929412 1
0.392157 0.584314 0.929412 1
0.392157 0.584314 0.929412 1
0.392157 0.584314 0.929412 1
0.392157 0.584314 0.929412 1
0.392157 0.584314 0.929412 1
0.392157 0.584314 0.929412 1
0.392157 0.584314 0.929412 1
0.392157 0.584314 0.929412 1
0.392157 0.584314 0.929412 1
0.392157 0.584314 0.929412 1
0.392157 0.584314 0.929412 1
0.392157 0.584314 0.929412 1
0.392157 0.584314 0.929412 1
0.392157 0.584314 0.929412 1
0.392157 0.584314 0.929412 1
0.392157 0.584314 0.929412 1
0.392157 0.584314 0.929412 1
0.392157 0.584314 0.929412 1
0.392157 0.584314 0.929412 1
0.392157 0.584314 0.929412 1
0.392157 0.584314 0.929412 1
0.392157 0.584314 0.929412 1
0.392157 0.584314 0.929412 1
0.392157 0.584314 0.929412 1
0.392157 0.584314 0.929412 1
0.392157 0.584314 0.929412 1
0.392157 0.584314 0.929412 1
0.392157 0.584314 0.929412 1
0.392157 0.584314 0.929412 1
0.392157 0.584314 0.929412 1
0.392157 0.584314 0.929412 1
0.392157 0.584314 0.929412 1
0.392157 0.584314 0.929412 1
0.392157 0.584314 0.929412 1
0.392157 0.584314 0.929412 1
0.392157 0.584314 0.929412 1
0.392157 0.584314 0.929412 1
0.392157 0.584314 0.929412 1
0.392157 0.584314 0.929412 1
0.392157 0.584314 0.929412 1
0.392157 0.584314 0.929412 1
0.392157 0.584314 0.929412 1
0.392157 0.584314 0.929412 1
0.392157 0.584314 0.929412 1
0.392157 0.584314 0.929412 1
0.392157 0.584314 0.929412 1
0.392157 0.584314 0.929412 1
0.392157 0.584314 0.929412 1
0.392157 0.584314 0.929412 1
0.392157 0.584314 0.929412 1
0.392157 0.584314 0.929412 1
0.392157 0.584314 0.929412 1
0.392157 0.584314 0.929412 1
0.392157 0.584314 0.929412 1
0.392157 0.584314 0.929412 1
0.392157 0.584314 0.929412 1
0.392157 0.584314 0.929412 1
0.392157 0.584314 0.929412 1
0.392157 0.584314 0.929412 1
0.392157 0.584314 0.929412 1
0.392157 0.584314 0.929412 1
0.392157 0.584314 0.929412 1
0.392157 0.584314 0.929412 1
0.392157 0.584314 0.929412 1
0.392157 0.584314 0.929412 1
0.392157 0.584314 0.929412 1
0.392157 0.584314 0.929412 1
0.392157 0.584314 0.929412 1
0.392157 0.584314 0.929412 1
0.392157 0.584314 0.929412 1
0.392157 0.584314 0.929412 1
0.392157 0.584314 0.929412 1
0.392157 0.584314 0.929412 1
0.392157 0.584314 0.929412 1
0.392157 0.584314 0.929412 1
0.392157 0.584314 0.929412 1
0.392157 0.584314 0.929412 1
0.392157 0.584314 0.929412 1
0.392157 0.584314 0.929412 1
0.392157 0.584314 0.929412 1
0.392157 0.584314 0.929412 1
0.392157 0.584314 0.929412 1
0.392157 0.584314 0.929412 1
0.392157 0.584314 0.929412 1
0.392157 0.584314 0.929412 1
0.392157 0.584314 0.929412 1
0.392157 0.584314 0.929412 1
0.392157 0.584314 0.929412 1
0.392157 0.584314 0.929412 1
0.392157 0.584314 0.929412 1
0.392157 0.584314 0.929412 1
0.392157 0.584314 0.929412 1
0.392157 0.584314 0.929412 1
0.392157 0.584314 0.929412 1
0.392157 0.584314 0.929412 1
0.392157 0.584314 0.929412 1
0.392157 0.584314 0.929412 1
0.392157 0.584314 0.929412 1
0.392157 0.584314 0.929412 1
0.392157 0.584314 0.929412 1
0.392157 0.584314 0.929412 1
0.392157 0.584314 0.929412 1
0.392157 0.584314 0.929412 1
0.392157 0.584314 0.929412 1
0.392157 0.584314 0.929412 1
0.392157 0.584314 0.929412 1
0.392157 0.584314 0.929412 1
0.392157 0.584314 0.929412 1
0.392157 0.584314 0.929412 1
0.392157 0.584314 0.929412 1
0.392157 0.584314 0.929412 1
0.392157 0.584314 0.929412 1
0.392157 0.584314 0.929412 1
0.392157 0.584314 0.929412 1
0.392157 0.584314 0.929412 1
0.392157 0.584314 0.929412 1
0.392157 0.584314 0.929412 1
0.392157 0.584314 0.929412 1
0.392157 0.584314 0.929412 1
0.392157 0.584314 0.929412 1
0.392157 0.584314 0.929412 1
0.392157 0.584314 0.929412 1
0.392157 0.584314 0.929412 1
0.392157 0.584314 0.929412 1
0.392157 0.584314 0.929412 1
0.392157 0.584314 0.929412 1
0.392157 0.584314 0.929412 1
0.392157 0.584314 0.929412 1
0.392157 0.584314 0.929412 1
0.392157 0.584314 0.929412 1
0.392157 0.584314 0.929412 1
0.392157 0.584314 0.929412 1
0.392157 0.584314 0.929412 1
0.392157 0.584314 0.929412 1
0.392157 0.584314 0.929412 1
0.392157 0.584314 0.929412 1
0.392157 0.584314 0.929412 1
0.392157 0.584314 0.929412 1
0.392157 0.584314 0.929412 1
0.392157 0.584314 0.929412 1
0.392157 0.584314 0.929412 1
0.392157 0.584314 0.929412 1
0.392157 0.584314 0.929412 1
0.392157 0.584314 0.929412 1
0.392157 0.584314 0.929412 1
0.392157 0.584314 0.929412 1
0.392157 0.584314 0.929412 1
0.392157 0.584314 0.929412 1
0.392157 0.584314 0.929412 1
0.392157 0.584314 0.929412 1
0.392157 0.584314 0.929412 1
0.392157 0.584314 0.929412 1
0.392157 0.584314 0.929412 1
0.392157 0.584314 0.929412 1
0.392157 0.584314 0.929412 1
0.392157 0.584314 0.929412 1
0.392157 0.584314 0.929412 1
0.392157 0.584314 0.929412 1
0.392157 0.584314 0.929412 1
0.392157 0.584314 0.929412 1
0.392157 0.584314 0.929412 1
0.392157 0.584314 0.929412 1
0.392157 0.584314 0.929412 1
0.392157 0.584314 0.929412 1
0.392157 0.584314 0.929412 1
0.392157 0.584314 0.929412 1
0.392157 0.584314 0.929412 1
0.392157 0.584314 0.929412 1
0.392157 0.584314 0.929412 1
0.392157 0.584314 0.929412 1
0.392157 0.584314 0.929412 1
0.392157 0.584314 0.929412 1
0.392157 0.584314 0.929412 1
0.392157 0.584314 0.929412 1
0.392157 0.584314 0.929412 1
0.392157 0.584314 0.929412 1
0.392157 0.584314 0.929412 1
0.392157 0.584314 0.929412 1
0.392157 0.584314 0.929412 1
0.392157 0.584314 0.929412 1
0.392157 0.584314 0.929412 1
0.392157 0.584314 0.929412 1
0.392157 0.584314 0.929412 1
0.392157 0.584314 0.929412 1
0.392157 0.584314 0.929412 1
0.392157 0.584314 0.929412 1
0.392157 0.584314 0.929412 1
0.392157 0.584314 0.929412 1
0.392157 0.584314 0.929412 1
0.392157 0.584314 0.929412 1
0.392157 0.584314 0.929412 1
0.392157 0.584314 0.929412 1
0.392157 0.584314 0.929412 1
0.392157 0.584314 0.929412 1
0.392157 0.584314 0.929412 1
0.392157 0.584314 0.929412 1
0.392157 0.584314 0.929412 1
0.392157 0.584314 0.929412 1
0.392157 0.584314 0.929412 1
0.392157 0.584314 0.929412 1
0.392157 0.584314 0.929412 1
0.392157 0.584314 0.929412 1
0.392157 0.584314 0.929412 1
0.392157 0.584314 0.929412 1
0.392157 0.584314 0.929412 1
0.392157 0.584314 0.929412 1
0.392157 0.584314 0.929412 1
0.392157 0.584314 0.929412 1
0.392157 0.584314 0.929412 1
0.392157 0.584314 0.929412 1
0.392157 0.584314 0.929412 1
0.392157 0.584314 0.929412 1
0.392157 0.584314 0.929412 1
0.392157 0.584314 0.929412 1
0.392157 0.584314 0.929412 1
0.392157 0.584314 0.929412 1
0.392157 0.584314 0.929412 1
0.392157 0.584314 0.929412 1

