# vtk DataFile Version 3.0
Gocad TSurf to VTK
ASCII
DATASET POLYDATA
POINTS 245 float
21565700.000 4573000.000 -95.000
21565825.000 4573170.000 -97.500
21566200.000 4572907.500 -105.000
21566200.000 4573165.000 -105.000
21566200.000 4572650.000 -105.000
21565300.000 4573477.500 -22.500
21565600.000 4573545.000 -50.000
21565000.000 4573410.000 5.000
21565075.000 4573635.000 -16.250
21565225.000 4573085.000 46.250
21565750.000 4572777.500 -28.750
21565075.000 4573167.500 158.750
21565350.000 4572815.000 162.500
21564800.000 4573520.000 155.000
21564925.000 4573717.500 96.250
21564825.000 4573780.000 113.750
21565050.000 4573915.000 37.500
21565150.000 4573860.000 -37.500
21565175.000 4574112.500 -21.250
21565225.000 4574085.000 -58.750
21565900.000 4573612.500 -77.500
21565300.000 4574310.000 -80.000
21564875.000 4574300.000 31.250
21564850.000 4574040.000 72.500
21564900.000 4574560.000 -10.000
21564800.000 4574337.500 113.750
21565475.000 4574812.500 25.000
21565400.000 4574850.000 107.500
21565775.000 4574625.000 -27.500
21566050.000 4575065.000 60.000
21566200.000 4573680.000 -105.000
21566450.000 4574152.500 -46.250
21566250.000 4574940.000 25.000
21566450.000 4574142.500 -63.750
21566700.000 4574605.000 -22.500
21566500.000 4574077.500 -95.000
21566800.000 4574475.000 -85.000
21566575.000 4573947.500 -102.500
21566950.000 4574215.000 -100.000
21567000.000 4573140.000 -135.000
21566200.000 4573422.500 -105.000
21567175.000 4573542.500 -125.000
21567325.000 4573330.000 -117.500
21567650.000 4573520.000 -100.000
21567700.000 4572700.000 -135.000
21567475.000 4572605.000 -125.000
21567850.000 4573000.000 -117.500
21567975.000 4572825.000 -107.500
21568250.000 4572950.000 -80.000
21567975.000 4572825.000 -107.500
21567975.000 4572825.000 -107.500
21568250.000 4572950.000 -80.000
21568250.000 4572950.000 -80.000
21568525.000 4573075.000 -52.500
21568525.000 4573075.000 -52.500
21568525.000 4573075.000 -52.500
21568800.000 4573200.000 -25.000
21568150.000 4573600.000 -82.500
21568300.000 4573900.000 -65.000
21568000.000 4573300.000 -100.000
21567975.000 4573710.000 -82.500
21567525.000 4574347.500 -105.000
21567700.000 4574750.000 -95.000
21567350.000 4573945.000 -115.000
21567325.000 4574482.500 -97.500
21567100.000 4574872.500 -75.000
21567400.000 4575270.000 -65.000
21566950.000 4575067.500 18.750
21566700.000 4574625.000 12.500
21566950.000 4575097.500 71.250
21566725.000 4575255.000 77.500
21566625.000 4575317.500 95.000
21567200.000 4575570.000 130.000
21567200.000 4575530.000 60.000
21567500.000 4575562.500 83.750
21567650.000 4575367.500 -10.000
21567800.000 4575595.000 107.500
21567675.000 4575290.000 -65.000
21567900.000 4575465.000 45.000
21567900.000 4574900.000 -87.500
21567950.000 4575310.000 -65.000
21568025.000 4574650.000 -118.750
21568100.000 4575050.000 -80.000
21568475.000 4574012.500 -96.250
21568350.000 4574550.000 -142.500
21568850.000 4573487.500 -66.250
21568900.000 4573775.000 -107.500
21568975.000 4573285.000 -62.500
21569150.000 4573370.000 -100.000
21568975.000 4573285.000 -62.500
21568975.000 4573285.000 -62.500
21569150.000 4573370.000 -100.000
21569150.000 4573370.000 -100.000
21569325.000 4573455.000 -137.500
21569325.000 4573455.000 -137.500
21569325.000 4573455.000 -137.500
21569500.000 4573540.000 -175.000
21568950.000 4574062.500 -148.750
21569000.000 4574350.000 -190.000
21568650.000 4574125.000 -127.500
21568825.000 4574237.500 -158.750
21568675.000 4574450.000 -166.250
21568500.000 4575350.000 -65.000
21568775.000 4575285.000 -61.250
21568300.000 4575200.000 -72.500
21568225.000 4575330.000 -65.000
21568150.000 4575562.500 100.000
21568400.000 4575660.000 155.000
21568100.000 4575627.500 131.250
21568100.000 4575637.500 148.750
21567800.000 4575615.000 142.500
21567500.000 4575592.500 136.250
21568675.000 4575587.500 162.500
21568750.000 4575355.000 -2.500
21568950.000 4575515.000 170.000
21569000.000 4575360.000 60.000
21569050.000 4575220.000 -57.500
21569250.000 4575365.000 122.500
21569150.000 4574535.000 -155.000
21569300.000 4574720.000 -120.000
21569325.000 4575155.000 -53.750
21569400.000 4574410.000 -147.500
21569600.000 4574440.000 -126.250
21569200.000 4574380.000 -168.750
21569650.000 4574005.000 -140.000
21569575.000 4573772.500 -157.500
21569625.000 4573630.000 -155.000
21569750.000 4573720.000 -135.000
21569625.000 4573627.500 -155.000
21569750.000 4573715.000 -135.000
21569625.000 4573627.500 -155.000
21569750.000 4573715.000 -135.000
21569875.000 4573802.500 -115.000
21569875.000 4573802.500 -115.000
21570000.000 4573890.000 -95.000
21569875.000 4573810.000 -115.000
21570000.000 4573900.000 -95.000
21569725.000 4574237.500 -122.500
21569800.000 4574470.000 -105.000
21569450.000 4574905.000 -85.000
21570200.000 4574087.500 -67.500
21570050.000 4574515.000 -75.000
21570200.000 4574080.000 -67.500
21570400.000 4574270.000 -40.000
21570400.000 4574275.000 -40.000
21570600.000 4574460.000 -12.500
21570600.000 4574462.500 -12.500
21570300.000 4574560.000 -45.000
21570800.000 4574650.000 15.000
21570550.000 4574605.000 -15.000
21570550.000 4574605.000 -15.000
21570300.000 4574560.000 -45.000
21570700.000 4574880.000 45.000
21570825.000 4574707.500 46.250
21570475.000 4574777.500 7.500
21570400.000 4574890.000 153.750
21570200.000 4574750.000 67.500
21570600.000 4575030.000 240.000
21570650.000 4575015.000 215.000
21570350.000 4575045.000 167.500
21570325.000 4575115.000 226.250
21570100.000 4575060.000 95.000
21570050.000 4575200.000 212.500
21569850.000 4575075.000 22.500
21570000.000 4574610.000 -18.750
21569775.000 4575285.000 198.750
21569600.000 4575090.000 -50.000
21569500.000 4575370.000 185.000
21569225.000 4575442.500 177.500
21570025.000 4574572.500 -67.500
21570050.000 4574515.000 -75.000
21570250.000 4574675.000 -30.000
21570650.000 4575032.500 242.500
21570725.000 4574902.500 68.750
21570700.000 4575000.000 190.000
21570750.000 4574882.500 68.750
21570750.000 4574925.000 92.500
21570750.000 4574880.000 68.750
21570800.000 4574880.000 92.500
21570850.000 4574765.000 77.500
21570850.000 4574765.000 77.500
21570875.000 4574822.500 108.750
21570825.000 4574707.500 46.250
21570875.000 4574822.500 108.750
21570900.000 4574880.000 140.000
21570850.000 4574880.000 116.250
21570800.000 4574885.000 92.500
21570850.000 4574887.500 116.250
21570775.000 4574947.500 116.250
21570900.000 4574890.000 140.000
21570800.000 4574970.000 140.000
21570750.000 4574985.000 165.000
21570800.000 4575040.000 250.000
21570750.000 4575037.500 247.500
21570700.000 4575035.000 245.000
21566600.000 4575330.000 122.500
21566000.000 4575090.000 115.000
21567475.000 4572605.000 -125.000
21566950.000 4572935.000 -125.000
21567250.000 4572510.000 -115.000
21566950.000 4572937.500 -125.000
21566900.000 4572735.000 -115.000
21566800.000 4573017.500 -127.500
21566600.000 4572895.000 -120.000
21565950.000 4573340.000 -100.000
21566075.000 4573510.000 -102.500
21566400.000 4572772.500 -112.500
21566850.000 4572532.500 -105.000
21566800.000 4572330.000 -95.000
21566650.000 4572257.500 -50.000
21566800.000 4572320.000 -95.000
21566200.000 4572497.500 -57.500
21566500.000 4572185.000 -5.000
21566175.000 4572497.500 -57.500
21566200.000 4572345.000 -10.000
21566150.000 4572507.500 -57.500
21566100.000 4572365.000 -10.000
21566125.000 4572515.000 -36.250
21565800.000 4572555.000 37.500
21566050.000 4572380.000 32.500
21565450.000 4572760.000 87.500
21565675.000 4572435.000 128.750
21565625.000 4572462.500 166.250
21565900.000 4572110.000 170.000
21565850.000 4572332.500 103.750
21565975.000 4572245.000 101.250
21566000.000 4572080.000 85.000
21566050.000 4572222.500 37.500
21566125.000 4572192.500 37.500
21566150.000 4572345.000 -10.000
21566100.000 4572040.000 85.000
21566200.000 4572040.000 85.000
21566200.000 4572192.500 37.500
21566350.000 4572112.500 40.000
21566350.000 4572110.000 40.000
21566500.000 4572180.000 -5.000
21566650.000 4572250.000 -50.000
21566850.000 4572525.000 -105.000
21567025.000 4572415.000 -105.000
21566900.000 4572730.000 -115.000
21567025.000 4572415.000 -105.000
21567250.000 4572510.000 -115.000
21564800.000 4574610.000 100.000
21564800.000 4574065.000 127.500
21564800.000 4573792.500 141.250

POLYGONS 426 1704
3 211 214 213
3 15 16 14
3 41 39 37
3 214 233 232
3 227 226 225
3 76 74 111
3 65 67 66
3 137 122 138
3 133 135 134
3 207 201 239
3 113 102 112
3 94 95 96
3 157 172 158
3 8 14 16
3 4 211 213
3 159 157 155
3 36 34 65
3 34 68 67
3 129 127 133
3 178 185 183
3 167 166 120
3 143 144 145
3 117 168 167
3 40 202 3
3 156 154 171
3 118 119 121
3 132 133 134
3 142 140 143
3 80 79 77
3 172 194 158
3 23 18 16
3 229 227 216
3 128 126 129
3 199 241 240
3 7 14 8
3 137 138 136
3 183 184 181
3 40 39 202
3 103 98 102
3 91 90 89
3 208 207 237
3 117 115 168
3 104 82 105
3 144 141 147
3 93 94 96
3 114 113 112
3 185 184 183
3 103 113 115
3 161 164 163
3 42 41 43
3 47 46 48
3 32 28 29
3 156 155 154
3 147 141 170
3 42 44 39
3 105 82 80
3 89 56 87
3 81 82 84
3 233 231 232
3 220 221 222
3 195 29 196
3 59 46 43
3 124 137 135
3 74 72 111
3 204 20 205
3 242 24 25
3 234 231 233
3 25 22 243
3 152 157 158
3 134 136 142
3 3 203 2
3 80 106 105
3 210 238 240
3 176 188 186
3 33 31 34
3 187 184 185
3 18 21 19
3 216 227 219
3 69 70 72
3 11 9 12
3 201 202 200
3 139 119 120
3 51 50 49
3 86 97 95
3 49 48 52
3 70 68 32
3 97 100 98
3 64 65 62
3 189 184 187
3 70 32 71
3 127 124 135
3 87 56 85
3 200 39 198
3 148 146 149
3 116 117 120
3 152 173 175
3 227 225 219
3 106 78 108
3 38 36 64
3 148 153 182
3 2 1 3
3 17 19 6
3 89 87 88
3 116 118 103
3 76 75 74
3 159 156 161
3 193 192 191
3 239 199 238
3 4 213 215
3 90 56 89
3 77 75 78
3 154 152 150
3 50 44 49
3 71 195 72
3 92 88 95
3 201 200 198
3 214 229 213
3 24 21 22
3 160 161 162
3 49 44 47
3 139 120 166
3 77 62 66
3 165 166 167
3 31 30 28
3 103 115 116
3 0 1 2
3 229 216 213
3 28 30 21
3 186 185 178
3 199 45 241
3 151 154 150
3 140 141 144
3 153 177 179
3 211 212 214
3 7 13 14
3 135 136 134
3 61 64 62
3 1 204 3
3 13 7 11
3 71 32 29
3 81 58 62
3 159 155 156
3 97 99 100
3 232 228 229
3 49 47 48
3 190 189 187
3 74 73 72
3 179 183 181
3 175 178 177
3 124 125 123
3 106 108 107
3 130 96 128
3 53 52 54
3 104 105 102
3 163 164 138
3 135 137 136
3 187 185 186
3 152 177 153
3 27 24 242
3 149 147 151
3 93 91 92
3 198 45 199
3 237 207 239
3 160 157 159
3 191 190 188
3 208 210 209
3 25 24 22
3 214 212 233
3 213 216 215
3 152 158 173
3 1 6 204
3 82 79 80
3 168 115 114
3 35 33 36
3 194 193 174
3 68 69 67
3 164 169 138
3 19 20 6
3 60 59 43
3 0 5 1
3 196 26 27
3 144 147 146
3 91 89 92
3 108 76 110
3 193 191 174
3 150 149 151
3 43 46 42
3 17 6 5
3 77 78 80
3 9 220 12
3 31 68 34
3 152 175 177
3 209 236 212
3 169 170 138
3 226 223 225
3 85 58 83
3 0 7 5
3 145 144 146
3 55 57 56
3 3 202 203
3 45 44 197
3 60 61 58
3 219 225 224
3 57 58 56
3 198 39 45
3 51 49 52
3 140 138 141
3 86 83 99
3 119 139 122
3 128 96 126
3 0 4 10
3 37 39 30
3 243 22 23
3 153 179 180
3 42 39 41
3 162 163 165
3 176 191 188
3 210 237 238
3 116 115 117
3 221 223 222
3 122 139 138
3 26 24 27
3 4 208 209
3 86 85 83
3 202 39 200
3 162 161 163
3 216 219 217
3 176 186 175
3 228 227 229
3 237 210 208
3 165 163 166
3 243 23 244
3 70 71 72
3 63 61 60
3 71 29 195
3 79 62 77
3 17 18 19
3 164 171 169
3 48 59 55
3 8 16 17
3 75 66 74
3 177 178 179
3 120 119 116
3 161 156 164
3 84 83 81
3 132 131 129
3 207 203 201
3 171 154 151
3 235 234 233
3 204 6 20
3 143 140 144
3 118 98 103
3 20 30 205
3 186 178 175
3 17 16 18
3 105 106 107
3 81 79 82
3 26 21 24
3 29 26 196
3 97 98 96
3 126 125 127
3 204 205 40
3 126 96 125
3 173 176 175
3 228 226 227
3 218 219 224
3 139 166 138
3 84 104 101
3 63 41 38
3 211 209 212
3 59 57 55
3 179 178 183
3 192 190 191
3 88 86 95
3 239 201 198
3 69 72 73
3 78 75 76
3 108 110 109
3 220 218 221
3 137 121 122
3 68 31 32
3 169 171 170
3 120 117 167
3 52 48 55
3 21 30 20
3 67 73 66
3 101 104 102
3 188 190 187
3 132 129 133
3 19 21 20
3 173 158 174
3 74 66 73
3 103 102 113
3 148 152 153
3 7 9 11
3 45 197 241
3 52 55 54
3 151 147 170
3 33 30 31
3 84 82 104
3 125 96 98
3 97 86 99
3 201 203 202
3 155 152 154
3 76 111 110
3 61 63 64
3 7 0 9
3 61 62 58
3 10 217 218
3 215 216 217
3 100 101 98
3 23 16 15
3 123 98 118
3 136 138 140
3 224 223 221
3 37 35 38
3 131 128 129
3 170 171 151
3 7 8 5
3 150 152 148
3 13 15 14
3 236 235 212
3 46 44 42
3 173 174 176
3 80 78 106
3 40 30 39
3 208 4 206
3 194 174 158
3 101 102 98
3 214 232 229
3 41 63 43
3 205 30 40
3 4 209 211
3 217 219 218
3 85 86 88
3 99 83 84
3 238 199 240
3 108 109 107
3 207 206 203
3 33 34 36
3 3 204 40
3 22 18 23
3 4 2 206
3 57 59 60
3 54 55 56
3 180 179 181
3 32 31 28
3 2 4 0
3 34 67 65
3 47 44 46
3 81 62 79
3 182 153 180
3 4 215 217
3 176 174 191
3 64 63 38
3 146 147 149
3 36 65 64
3 105 107 102
3 210 236 209
3 77 66 75
3 163 138 166
3 212 235 233
3 208 206 207
3 35 30 33
3 101 99 84
3 4 217 10
3 95 97 96
3 57 60 58
3 43 63 60
3 124 123 121
3 83 58 81
3 119 118 116
3 141 138 170
3 123 118 121
3 10 218 220
3 239 198 199
3 53 54 56
3 53 51 52
3 125 124 127
3 85 56 58
3 218 224 221
3 244 23 15
3 87 85 88
3 155 157 152
3 237 239 238
3 12 220 222
3 127 135 133
3 29 28 26
3 37 30 35
3 89 88 92
3 1 5 6
3 8 17 5
3 148 145 146
3 131 130 128
3 232 231 228
3 22 21 18
3 112 102 107
3 2 203 206
3 115 113 114
3 69 68 70
3 142 136 140
3 230 226 228
3 231 230 228
3 125 98 123
3 67 69 73
3 164 156 171
3 160 159 161
3 92 95 94
3 39 44 45
3 28 21 26
3 38 41 37
3 108 78 76
3 188 187 186
3 225 223 224
3 0 10 9
3 9 10 220
3 65 66 62
3 121 119 122
3 13 244 15
3 93 92 94
3 126 127 129
3 148 149 150
3 137 124 121
3 100 99 101
3 46 59 48
3 35 36 38

POINT_DATA 245
COLOR_SCALARS GocadColor 4
0.5 0.5 0.75 1
0.5 0.5 0.75 1
0.5 0.5 0.75 1
0.5 0.5 0.75 1
0.5 0.5 0.75 1
0.5 0.5 0.75 1
0.5 0.5 0.75 1
0.5 0.5 0.75 1
0.5 0.5 0.75 1
0.5 0.5 0.75 1
0.5 0.5 0.75 1
0.5 0.5 0.75 1
0.5 0.5 0.75 1
0.5 0.5 0.75 1
0.5 0.5 0.75 1
0.5 0.5 0.75 1
0.5 0.5 0.75 1
0.5 0.5 0.75 1
0.5 0.5 0.75 1
0.5 0.5 0.75 1
0.5 0.5 0.75 1
0.5 0.5 0.75 1
0.5 0.5 0.75 1
0.5 0.5 0.75 1
0.5 0.5 0.75 1
0.5 0.5 0.75 1
0.5 0.5 0.75 1
0.5 0.5 0.75 1
0.5 0.5 0.75 1
0.5 0.5 0.75 1
0.5 0.5 0.75 1
0.5 0.5 0.75 1
0.5 0.5 0.75 1
0.5 0.5 0.75 1
0.5 0.5 0.75 1
0.5 0.5 0.75 1
0.5 0.5 0.75 1
0.5 0.5 0.75 1
0.5 0.5 0.75 1
0.5 0.5 0.75 1
0.5 0.5 0.75 1
0.5 0.5 0.75 1
0.5 0.5 0.75 1
0.5 0.5 0.75 1
0.5 0.5 0.75 1
0.5 0.5 0.75 1
0.5 0.5 0.75 1
0.5 0.5 0.75 1
0.5 0.5 0.75 1
0.5 0.5 0.75 1
0.5 0.5 0.75 1
0.5 0.5 0.75 1
0.5 0.5 0.75 1
0.5 0.5 0.75 1
0.5 0.5 0.75 1
0.5 0.5 0.75 1
0.5 0.5 0.75 1
0.5 0.5 0.75 1
0.5 0.5 0.75 1
0.5 0.5 0.75 1
0.5 0.5 0.75 1
0.5 0.5 0.75 1
0.5 0.5 0.75 1
0.5 0.5 0.75 1
0.5 0.5 0.75 1
0.5 0.5 0.75 1
0.5 0.5 0.75 1
0.5 0.5 0.75 1
0.5 0.5 0.75 1
0.5 0.5 0.75 1
0.5 0.5 0.75 1
0.5 0.5 0.75 1
0.5 0.5 0.75 1
0.5 0.5 0.75 1
0.5 0.5 0.75 1
0.5 0.5 0.75 1
0.5 0.5 0.75 1
0.5 0.5 0.75 1
0.5 0.5 0.75 1
0.5 0.5 0.75 1
0.5 0.5 0.75 1
0.5 0.5 0.75 1
0.5 0.5 0.75 1
0.5 0.5 0.75 1
0.5 0.5 0.75 1
0.5 0.5 0.75 1
0.5 0.5 0.75 1
0.5 0.5 0.75 1
0.5 0.5 0.75 1
0.5 0.5 0.75 1
0.5 0.5 0.75 1
0.5 0.5 0.75 1
0.5 0.5 0.75 1
0.5 0.5 0.75 1
0.5 0.5 0.75 1
0.5 0.5 0.75 1
0.5 0.5 0.75 1
0.5 0.5 0.75 1
0.5 0.5 0.75 1
0.5 0.5 0.75 1
0.5 0.5 0.75 1
0.5 0.5 0.75 1
0.5 0.5 0.75 1
0.5 0.5 0.75 1
0.5 0.5 0.75 1
0.5 0.5 0.75 1
0.5 0.5 0.75 1
0.5 0.5 0.75 1
0.5 0.5 0.75 1
0.5 0.5 0.75 1
0.5 0.5 0.75 1
0.5 0.5 0.75 1
0.5 0.5 0.75 1
0.5 0.5 0.75 1
0.5 0.5 0.75 1
0.5 0.5 0.75 1
0.5 0.5 0.75 1
0.5 0.5 0.75 1
0.5 0.5 0.75 1
0.5 0.5 0.75 1
0.5 0.5 0.75 1
0.5 0.5 0.75 1
0.5 0.5 0.75 1
0.5 0.5 0.75 1
0.5 0.5 0.75 1
0.5 0.5 0.75 1
0.5 0.5 0.75 1
0.5 0.5 0.75 1
0.5 0.5 0.75 1
0.5 0.5 0.75 1
0.5 0.5 0.75 1
0.5 0.5 0.75 1
0.5 0.5 0.75 1
0.5 0.5 0.75 1
0.5 0.5 0.75 1
0.5 0.5 0.75 1
0.5 0.5 0.75 1
0.5 0.5 0.75 1
0.5 0.5 0.75 1
0.5 0.5 0.75 1
0.5 0.5 0.75 1
0.5 0.5 0.75 1
0.5 0.5 0.75 1
0.5 0.5 0.75 1
0.5 0.5 0.75 1
0.5 0.5 0.75 1
0.5 0.5 0.75 1
0.5 0.5 0.75 1
0.5 0.5 0.75 1
0.5 0.5 0.75 1
0.5 0.5 0.75 1
0.5 0.5 0.75 1
0.5 0.5 0.75 1
0.5 0.5 0.75 1
0.5 0.5 0.75 1
0.5 0.5 0.75 1
0.5 0.5 0.75 1
0.5 0.5 0.75 1
0.5 0.5 0.75 1
0.5 0.5 0.75 1
0.5 0.5 0.75 1
0.5 0.5 0.75 1
0.5 0.5 0.75 1
0.5 0.5 0.75 1
0.5 0.5 0.75 1
0.5 0.5 0.75 1
0.5 0.5 0.75 1
0.5 0.5 0.75 1
0.5 0.5 0.75 1
0.5 0.5 0.75 1
0.5 0.5 0.75 1
0.5 0.5 0.75 1
0.5 0.5 0.75 1
0.5 0.5 0.75 1
0.5 0.5 0.75 1
0.5 0.5 0.75 1
0.5 0.5 0.75 1
0.5 0.5 0.75 1
0.5 0.5 0.75 1
0.5 0.5 0.75 1
0.5 0.5 0.75 1
0.5 0.5 0.75 1
0.5 0.5 0.75 1
0.5 0.5 0.75 1
0.5 0.5 0.75 1
0.5 0.5 0.75 1
0.5 0.5 0.75 1
0.5 0.5 0.75 1
0.5 0.5 0.75 1
0.5 0.5 0.75 1
0.5 0.5 0.75 1
0.5 0.5 0.75 1
0.5 0.5 0.75 1
0.5 0.5 0.75 1
0.5 0.5 0.75 1
0.5 0.5 0.75 1
0.5 0.5 0.75 1
0.5 0.5 0.75 1
0.5 0.5 0.75 1
0.5 0.5 0.75 1
0.5 0.5 0.75 1
0.5 0.5 0.75 1
0.5 0.5 0.75 1
0.5 0.5 0.75 1
0.5 0.5 0.75 1
0.5 0.5 0.75 1
0.5 0.5 0.75 1
0.5 0.5 0.75 1
0.5 0.5 0.75 1
0.5 0.5 0.75 1
0.5 0.5 0.75 1
0.5 0.5 0.75 1
0.5 0.5 0.75 1
0.5 0.5 0.75 1
0.5 0.5 0.75 1
0.5 0.5 0.75 1
0.5 0.5 0.75 1
0.5 0.5 0.75 1
0.5 0.5 0.75 1
0.5 0.5 0.75 1
0.5 0.5 0.75 1
0.5 0.5 0.75 1
0.5 0.5 0.75 1
0.5 0.5 0.75 1
0.5 0.5 0.75 1
0.5 0.5 0.75 1
0.5 0.5 0.75 1
0.5 0.5 0.75 1
0.5 0.5 0.75 1
0.5 0.5 0.75 1
0.5 0.5 0.75 1
0.5 0.5 0.75 1
0.5 0.5 0.75 1
0.5 0.5 0.75 1
0.5 0.5 0.75 1
0.5 0.5 0.75 1
0.5 0.5 0.75 1
0.5 0.5 0.75 1
0.5 0.5 0.75 1
0.5 0.5 0.75 1
0.5 0.5 0.75 1
0.5 0.5 0.75 1
0.5 0.5 0.75 1
0.5 0.5 0.75 1
0.5 0.5 0.75 1

