# vtk DataFile Version 3.0
Gocad TSurf to VTK
ASCII
DATASET POLYDATA
POINTS 1107 float
21530000.000 4544640.000 -962.500
21530075.000 4544985.000 -606.250
21529625.000 4544670.000 -997.500
21529725.000 4545172.500 -467.500
21529975.000 4544300.000 -1317.500
21530425.000 4544635.000 -898.750
21530200.000 4544580.000 -990.000
21530125.000 4545292.500 -300.000
21530575.000 4545557.500 20.000
21529968.891 4545720.148 168.835
21530018.328 4545717.043 169.346
21529814.328 4545739.758 167.871
21529673.141 4545754.859 166.811
21529450.000 4545677.500 53.750
21529628.750 4545759.113 166.447
21529550.000 4545185.000 -475.000
21529500.000 4544955.000 -712.500
21529200.000 4545210.000 -490.000
21529350.000 4545082.500 -601.250
21529351.094 4545791.246 166.673
21529465.891 4545777.602 166.563
21529291.844 4545797.824 166.708
21529245.766 4545824.691 167.753
21529075.000 4545745.000 -12.500
21529000.000 4545265.000 -548.750
21529096.313 4545928.348 171.915
21528904.484 4546066.535 177.497
21528850.000 4545640.000 -250.000
21528899.438 4546070.113 177.641
21528863.328 4546094.250 178.604
21528700.000 4546180.000 161.250
21528863.500 4546094.617 178.622
21528500.000 4546290.000 140.000
21528400.000 4545430.000 -725.000
21528700.000 4546182.500 161.250
21528575.000 4545272.500 -777.500
21528275.000 4546020.000 126.250
21528200.000 4545375.000 -522.500
21528050.000 4545750.000 112.500
21528200.000 4545195.000 -697.500
21528000.000 4544960.000 -670.000
21528300.000 4544970.000 -1090.000
21528125.000 4544850.000 -971.250
21528700.000 4544885.000 -1012.500
21528500.000 4544512.500 -1340.000
21528925.000 4544957.500 -882.500
21528900.000 4544842.500 -973.750
21529100.000 4544800.000 -935.000
21528900.000 4544677.500 -1161.250
21528700.000 4544575.000 -1270.000
21529100.000 4544580.000 -1185.000
21528900.000 4544577.500 -1227.500
21529275.000 4544610.000 -1122.500
21529275.000 4544527.500 -1216.250
21529275.000 4544775.000 -935.000
21529450.000 4544640.000 -1060.000
21529450.000 4544750.000 -935.000
21529625.000 4544362.500 -1306.250
21529450.000 4544475.000 -1247.500
21529700.000 4544200.000 -1450.000
21529900.000 4544172.500 -1422.500
21529550.000 4544235.000 -1411.250
21529450.000 4544355.000 -1302.500
21529700.000 4543990.000 -1435.000
21529550.000 4544017.500 -1415.000
21529900.000 4543967.500 -1421.250
21529700.000 4543740.000 -1240.000
21530100.000 4544040.000 -1387.500
21530100.000 4543815.000 -1310.000
21530200.000 4544415.000 -1177.500
21530500.000 4544090.000 -1340.000
21530300.000 4543852.500 -1345.000
21530600.000 4544460.000 -1045.000
21530400.000 4544520.000 -1017.500
21530850.000 4544170.000 -1352.500
21530675.000 4543987.500 -1376.250
21530775.000 4544555.000 -1115.000
21530900.000 4544355.000 -1205.000
21531000.000 4544825.000 -970.000
21530950.000 4544650.000 -1185.000
21530950.000 4545565.000 -88.750
21531650.000 4545257.500 -922.500
21530826.172 4545668.188 133.104
21530993.000 4545717.641 127.310
21530792.547 4545644.164 134.350
21530738.250 4545653.641 136.093
21530666.328 4545659.105 138.442
21530592.750 4545669.328 146.030
21530448.547 4545689.367 160.901
21530330.234 4545705.809 173.101
21530305.344 4545706.707 172.801
21530191.406 4545710.813 171.430
21531174.344 4545771.398 121.012
21531372.203 4545830.047 114.141
21531725.000 4545500.000 -618.750
21531406.328 4545840.727 112.952
21531600.656 4545897.918 106.206
21531602.781 4545898.508 106.132
21531800.000 4545792.500 -168.750
21532200.000 4545577.500 -726.250
21531848.188 4545987.684 97.517
21531863.266 4545993.457 96.987
21532089.813 4546084.723 95.700
21532101.125 4546089.168 95.634
21532596.453 4546273.766 92.668
21532400.000 4545470.000 -1005.000
21532175.000 4545480.000 -876.250
21532598.672 4546274.617 92.655
21532606.141 4546276.473 92.601
21532800.000 4546165.000 -141.250
21532650.000 4545557.500 -970.000
21532615.453 4546278.797 92.533
21532825.000 4546262.500 -8.750
21533050.000 4546235.000 -117.500
21532615.250 4546288.137 92.630
21532632.406 4546291.141 92.493
21532846.031 4546334.031 99.598
21532866.609 4546338.160 100.282
21533093.750 4546383.766 107.837
21533115.031 4546388.039 108.545
21533275.000 4546207.500 -226.250
21533000.000 4546050.000 -382.500
21533128.594 4546390.762 108.996
21533343.031 4546438.793 124.090
21533360.516 4546442.707 125.321
21533500.000 4546180.000 -335.000
21533200.000 4545935.000 -623.750
21533592.547 4546494.684 141.655
21533612.156 4546489.863 142.814
21533725.000 4546210.000 -202.500
21533700.000 4546117.500 -352.500
21533903.406 4546418.199 160.046
21534165.984 4546344.617 163.055
21533950.000 4546240.000 -70.000
21533900.000 4546055.000 -370.000
21534173.094 4546342.625 163.136
21534194.594 4546336.602 163.382
21534175.000 4546270.000 62.500
21534100.000 4545992.500 -387.500
21534349.313 4546293.242 165.155
21534475.000 4545912.500 -258.750
21534404.844 4546274.980 165.704
21534545.688 4546174.023 165.339
21534558.547 4546164.805 165.306
21534650.000 4545895.000 -112.500
21534425.000 4545792.500 -461.250
21534671.109 4546084.113 165.015
21534840.109 4545966.293 169.102
21534991.328 4545860.867 172.759
21534800.000 4545380.000 -630.000
21534675.000 4545517.500 -573.750
21534998.250 4545855.809 172.924
21535005.859 4545853.043 173.127
21535175.000 4545652.500 -25.000
21535025.000 4545292.500 -632.500
21535127.156 4545826.137 176.489
21535488.391 4545746.520 187.146
21535525.000 4545237.500 -435.000
21535500.297 4545743.898 187.497
21535747.281 4545689.461 194.783
21535913.984 4545652.719 199.701
21535994.266 4545635.145 202.219
21535997.281 4545634.484 202.314
21535700.000 4545030.000 -640.000
21535475.000 4545117.500 -637.500
21536003.672 4545632.285 202.507
21536125.000 4545377.500 -45.000
21536100.000 4544810.000 -725.000
21536245.375 4545591.773 210.202
21536483.391 4545556.699 217.824
21536375.000 4544852.500 -555.000
21536498.141 4545554.375 218.295
21536600.000 4545538.324 221.547
21536741.297 4545511.840 221.555
21536977.906 4545457.813 221.535
21536275.000 4544632.500 -837.500
21536981.031 4545457.820 221.537
21537250.000 4545060.000 -327.500
21536750.000 4544602.500 -833.750
21537012.313 4545459.320 221.564
21537022.797 4545457.883 221.567
21537225.484 4545432.563 225.218
21537226.938 4545432.383 225.244
21537375.000 4544850.000 -616.250
21537000.000 4544615.000 -857.500
21537364.547 4545415.191 227.723
21537900.000 4545320.000 195.000
21537500.000 4544640.000 -905.000
21537382.234 4545419.035 228.014
21537750.000 4545370.000 208.750
21538000.000 4545330.000 195.000
21537388.016 4545422.219 228.100
21537500.000 4545410.000 222.500
21537396.016 4545426.637 228.219
21538125.000 4545277.500 205.000
21538050.000 4545172.500 23.750
21538400.000 4545240.000 215.000
21538600.000 4545195.000 225.000
21538350.000 4544877.500 -318.750
21538000.000 4544685.000 -697.500
21538772.219 4545156.250 233.611
21538798.250 4545148.938 232.844
21538799.703 4545148.531 232.801
21538725.000 4544785.000 -311.250
21538250.000 4544707.500 -593.750
21538948.313 4545097.641 228.426
21538950.000 4545097.063 228.377
21538950.000 4544840.000 -132.500
21538725.000 4544392.500 -707.500
21539097.531 4545046.543 224.034
21539243.531 4544996.551 219.736
21539388.016 4544947.070 215.483
21538800.000 4544280.000 -780.000
21539394.203 4544943.535 215.301
21538500.000 4544102.500 -1045.000
21538300.000 4544327.500 -935.000
21538600.000 4543990.000 -1100.000
21538450.000 4544025.000 -1121.250
21538300.000 4544060.000 -1142.500
21538400.000 4543770.000 -1255.000
21538300.000 4543860.000 -1237.500
21538250.000 4543785.000 -1248.750
21538200.000 4543950.000 -1220.000
21538200.000 4543520.000 -1270.000
21538100.000 4543597.500 -1260.000
21538100.000 4543800.000 -1242.500
21537875.000 4543357.500 -1237.500
21537850.000 4543515.000 -1235.000
21537900.000 4543200.000 -1240.000
21537800.000 4543250.000 -1205.000
21537700.000 4543300.000 -1170.000
21537575.000 4542957.500 -1017.500
21537525.000 4543252.500 -1072.500
21537600.000 4542810.000 -990.000
21537300.000 4542770.000 -865.000
21537300.000 4542400.000 -685.000
21537225.000 4542482.500 -698.750
21537075.000 4542647.500 -726.250
21537075.000 4542332.500 -657.500
21537025.000 4542597.500 -712.500
21537100.000 4542200.000 -630.000
21536975.000 4542232.500 -605.000
21536850.000 4542265.000 -580.000
21537076.313 4542155.000 -630.000
21536983.703 4542155.000 -613.708
21536934.203 4542155.000 -605.000
21536881.422 4542155.000 -595.714
21536813.328 4542155.000 -583.333
21536800.000 4542165.000 -580.000
21536802.813 4542155.000 -580.986
21536700.000 4542250.000 -555.000
21536794.734 4542155.000 -579.211
21536600.000 4542330.000 -530.000
21536650.438 4542155.000 -547.565
21536576.188 4542155.000 -531.190
21536700.000 4542155.000 -558.455
21536507.891 4542155.000 -516.184
21536414.859 4542155.000 -557.192
21536425.000 4542295.000 -596.250
21536253.891 4542155.000 -628.139
21536500.000 4542400.000 -627.500
21536800.000 4542700.000 -785.000
21536250.000 4542260.000 -662.500
21536075.000 4542225.000 -728.750
21536194.734 4542155.000 -654.211
21536108.875 4542155.000 -692.056
21536038.156 4542155.000 -723.224
21535900.000 4542190.000 -795.000
21535972.922 4542155.000 -751.979
21536200.000 4542610.000 -920.000
21535825.000 4542385.000 -805.000
21536050.000 4542700.000 -898.750
21535806.094 4542155.000 -784.756
21535670.375 4542155.000 -774.076
21535888.172 4542155.000 -791.807
21535905.219 4542155.000 -785.597
21535525.000 4542490.000 -671.250
21535608.234 4542155.000 -749.278
21535750.000 4542580.000 -815.000
21535675.000 4542775.000 -825.000
21535900.000 4542790.000 -877.500
21536125.000 4542845.000 -993.750
21535600.000 4542970.000 -835.000
21535975.000 4543315.000 -1141.250
21535200.000 4542660.000 -657.500
21535100.000 4542920.000 -787.500
21534900.000 4542200.000 -647.500
21534850.000 4542505.000 -690.000
21535036.953 4542155.000 -661.196
21534873.000 4542155.000 -662.800
21535297.531 4542155.000 -680.556
21534817.109 4542155.000 -669.408
21534700.000 4542260.000 -655.000
[...]
POINT_DATA 1107
COLOR_SCALARS GocadColor 4
0.5 1 0.25 1
0.5 1 0.25 1
0.5 1 0.25 1
0.5 1 0.25 1
0.5 1 0.25 1
0.5 1 0.25 1
0.5 1 0.25 1
0.5 1 0.25 1
0.5 1 0.25 1
0.5 1 0.25 1
0.5 1 0.25 1
0.5 1 0.25 1
0.5 1 0.25 1
0.5 1 0.25 1
0.5 1 0.25 1
0.5 1 0.25 1
0.5 1 0.25 1
0.5 1 0.25 1
0.5 1 0.25 1
0.5 1 0.25 1
0.5 1 0.25 1
0.5 1 0.25 1
0.5 1 0.25 1
0.5 1 0.25 1
0.5 1 0.25 1
0.5 1 0.25 1
0.5 1 0.25 1
0.5 1 0.25 1
0.5 1 0.25 1
0.5 1 0.25 1
0.5 1 0.25 1
0.5 1 0.25 1
0.5 1 0.25 1
0.5 1 0.25 1
0.5 1 0.25 1
0.5 1 0.25 1
0.5 1 0.25 1
0.5 1 0.25 1
0.5 1 0.25 1
0.5 1 0.25 1
0.5 1 0.25 1
0.5 1 0.25 1
0.5 1 0.25 1
0.5 1 0.25 1
0.5 1 0.25 1
0.5 1 0.25 1
0.5 1 0.25 1
0.5 1 0.25 1
0.5 1 0.25 1
0.5 1 0.25 1
0.5 1 0.25 1
0.5 1 0.25 1
0.5 1 0.25 1
0.5 1 0.25 1
0.5 1 0.25 1
0.5 1 0.25 1
0.5 1 0.25 1
0.5 1 0.25 1
0.5 1 0.25 1
0.5 1 0.25 1
0.5 1 0.25 1
0.5 1 0.25 1
0.5 1 0.25 1
0.5 1 0.25 1
0.5 1 0.25 1
0.5 1 0.25 1
0.5 1 0.25 1
0.5 1 0.25 1
0.5 1 0.25 1
0.5 1 0.25 1
0.5 1 0.25 1
0.5 1 0.25 1
0.5 1 0.25 1
0.5 1 0.25 1
0.5 1 0.25 1
0.5 1 0.25 1
0.5 1 0.25 1
0.5 1 0.25 1
0.5 1 0.25 1
0.5 1 0.25 1
0.5 1 0.25 1
0.5 1 0.25 1
0.5 1 0.25 1
0.5 1 0.25 1
0.5 1 0.25 1
0.5 1 0.25 1
0.5 1 0.25 1
0.5 1 0.25 1
0.5 1 0.25 1
0.5 1 0.25 1
0.5 1 0.25 1
0.5 1 0.25 1
0.5 1 0.25 1
0.5 1 0.25 1
0.5 1 0.25 1
0.5 1 0.25 1
0.5 1 0.25 1
0.5 1 0.25 1
0.5 1 0.25 1
0.5 1 0.25 1
0.5 1 0.25 1
0.5 1 0.25 1
0.5 1 0.25 1
0.5 1 0.25 1
0.5 1 0.25 1
0.5 1 0.25 1
0.5 1 0.25 1
0.5 1 0.25 1
0.5 1 0.25 1
0.5 1 0.25 1
0.5 1 0.25 1
0.5 1 0.25 1
0.5 1 0.25 1
0.5 1 0.25 1
0.5 1 0.25 1
0.5 1 0.25 1
0.5 1 0.25 1
0.5 1 0.25 1
0.5 1 0.25 1
0.5 1 0.25 1
0.5 1 0.25 1
0.5 1 0.25 1
0.5 1 0.25 1
0.5 1 0.25 1
0.5 1 0.25 1
0.5 1 0.25 1
0.5 1 0.25 1
0.5 1 0.25 1
0.5 1 0.25 1
0.5 1 0.25 1
0.5 1 0.25 1
0.5 1 0.25 1
0.5 1 0.25 1
0.5 1 0.25 1
0.5 1 0.25 1
0.5 1 0.25 1
0.5 1 0.25 1
0.5 1 0.25 1
0.5 1 0.25 1
0.5 1 0.25 1
0.5 1 0.25 1
0.5 1 0.25 1
0.5 1 0.25 1
0.5 1 0.25 1
0.5 1 0.25 1
0.5 1 0.25 1
0.5 1 0.25 1
0.5 1 0.25 1
0.5 1 0.25 1
0.5 1 0.25 1
0.5 1 0.25 1
0.5 1 0.25 1
0.5 1 0.25 1
0.5 1 0.25 1
0.5 1 0.25 1
0.5 1 0.25 1
0.5 1 0.25 1
0.5 1 0.25 1
0.5 1 0.25 1
0.5 1 0.25 1
0.5 1 0.25 1
0.5 1 0.25 1
0.5 1 0.25 1
0.5 1 0.25 1
0.5 1 0.25 1
0.5 1 0.25 1
0.5 1 0.25 1
0.5 1 0.25 1
0.5 1 0.25 1
0.5 1 0.25 1
0.5 1 0.25 1
0.5 1 0.25 1
0.5 1 0.25 1
0.5 1 0.25 1
0.5 1 0.25 1
0.5 1 0.25 1
0.5 1 0.25 1
0.5 1 0.25 1
0.5 1 0.25 1
0.5 1 0.25 1
0.5 1 0.25 1
0.5 1 0.25 1
0.5 1 0.25 1
0.5 1 0.25 1
0.5 1 0.25 1
0.5 1 0.25 1
0.5 1 0.25 1
0.5 1 0.25 1
0.5 1 0.25 1
0.5 1 0.25 1
0.5 1 0.25 1
0.5 1 0.25 1
0.5 1 0.25 1
0.5 1 0.25 1
0.5 1 0.25 1
0.5 1 0.25 1
0.5 1 0.25 1
0.5 1 0.25 1
0.5 1 0.25 1
0.5 1 0.25 1
0.5 1 0.25 1
0.5 1 0.25 1
0.5 1 0.25 1
0.5 1 0.25 1
0.5 1 0.25 1
0.5 1 0.25 1
0.5 1 0.25 1
0.5 1 0.25 1
0.5 1 0.25 1
0.5 1 0.25 1
0.5 1 0.25 1
0.5 1 0.25 1
0.5 1 0.25 1
0.5 1 0.25 1
0.5 1 0.25 1
0.5 1 0.25 1
0.5 1 0.25 1
0.5 1 0.25 1
0.5 1 0.25 1
0.5 1 0.25 1
0.5 1 0.25 1
0.5 1 0.25 1
0.5 1 0.25 1
0.5 1 0.25 1
0.5 1 0.25 1
0.5 1 0.25 1
0.5 1 0.25 1
0.5 1 0.25 1
0.5 1 0.25 1
0.5 1 0.25 1
0.5 1 0.25 1
0.5 1 0.25 1
0.5 1 0.25 1
0.5 1 0.25 1
0.5 1 0.25 1
0.5 1 0.25 1
0.5 1 0.25 1
0.5 1 0.25 1
0.5 1 0.25 1
0.5 1 0.25 1
0.5 1 0.25 1
0.5 1 0.25 1
0.5 1 0.25 1
0.5 1 0.25 1
0.5 1 0.25 1
0.5 1 0.25 1
0.5 1 0.25 1
0.5 1 0.25 1
0.5 1 0.25 1
0.5 1 0.25 1
0.5 1 0.25 1
0.5 1 0.25 1
0.5 1 0.25 1
0.5 1 0.25 1
0.5 1 0.25 1
0.5 1 0.25 1
0.5 1 0.25 1
0.5 1 0.25 1
0.5 1 0.25 1
0.5 1 0.25 1
0.5 1 0.25 1
0.5 1 0.25 1
0.5 1 0.25 1
0.5 1 0.25 1
0.5 1 0.25 1
0.5 1 0.25 1
0.5 1 0.25 1
0.5 1 0.25 1
0.5 1 0.25 1
0.5 1 0.25 1
0.5 1 0.25 1
0.5 1 0.25 1
0.5 1 0.25 1
0.5 1 0.25 1
0.5 1 0.25 1
0.5 1 0.25 1
0.5 1 0.25 1
0.5 1 0.25 1
0.5 1 0.25 1
0.5 1 0.25 1
0.5 1 0.25 1
0.5 1 0.25 1
0.5 1 0.25 1
0.5 1 0.25 1
0.5 1 0.25 1
0.5 1 0.25 1
0.5 1 0.25 1
0.5 1 0.25 1
0.5 1 0.25 1
0.5 1 0.25 1
0.5 1 0.25 1
0.5 1 0.25 1
0.5 1 0.25 1
0.5 1 0.25 1
0.5 1 0.25 1
0.5 1 0.25 1
0.5 1 0.25 1
0.5 1 0.25 1
0.5 1 0.25 1
0.5 1 0.25 1
0.5 1 0.25 1
0.5 1 0.25 1
0.5 1 0.25 1
0.5 1 0.25 1
0.5 1 0.25 1
0.5 1 0.25 1
0.5 1 0.25 1
0.5 1 0.25 1
0.5 1 0.25 1
0.5 1 0.25 1
0.5 1 0.25 1
0.5 1 0.25 1
0.5 1 0.25 1
0.5 1 0.25 1
0.5 1 0.25 1
0.5 1 0.25 1
0.5 1 0.25 1
0.5 1 0.25 1
0.5 1 0.25 1
0.5 1 0.25 1
0.5 1 0.25 1
0.5 1 0.25 1
0.5 1 0.25 1
0.5 1 0.25 1
0.5 1 0.25 1
0.5 1 0.25 1
0.5 1 0.25 1
0.5 1 0.25 1
0.5 1 0.25 1
0.5 1 0.25 1
0.5 1 0.25 1
0.5 1 0.25 1
0.5 1 0.25 1
0.5 1 0.25 1
0.5 1 0.25 1
0.5 1 0.25 1
0.5 1 0.25 1
0.5 1 0.25 1
0.5 1 0.25 1
0.5 1 0.25 1
0.5 1 0.25 1
0.5 1 0.25 1
0.5 1 0.25 1
0.5 1 0.25 1
0.5 1 0.25 1
0.5 1 0.25 1
0.5 1 0.25 1
0.5 1 0.25 1
0.5 1 0.25 1
0.5 1 0.25 1
0.5 1 0.25 1
0.5 1 0.25 1
0.5 1 0.25 1
0.5 1 0.25 1
0.5 1 0.25 1
0.5 1 0.25 1
0.5 1 0.25 1
0.5 1 0.25 1
0.5 1 0.25 1
0.5 1 0.25 1
0.5 1 0.25 1
0.5 1 0.25 1
0.5 1 0.25 1
0.5 1 0.25 1
0.5 1 0.25 1
0.5 1 0.25 1
0.5 1 0.25 1
0.5 1 0.25 1
0.5 1 0.25 1
0.5 1 0.25 1
0.5 1 0.25 1
0.5 1 0.25 1
0.5 1 0.25 1
0.5 1 0.25 1
0.5 1 0.25 1
0.5 1 0.25 1
0.5 1 0.25 1
0.5 1 0.25 1
0.5 1 0.25 1
0.5 1 0.25 1
0.5 1 0.25 1
0.5 1 0.25 1
0.5 1 0.25 1
0.5 1 0.25 1
0.5 1 0.25 1
0.5 1 0.25 1
0.5 1 0.25 1
0.5 1 0.25 1
0.5 1 0.25 1
0.5 1 0.25 1
0.5 1 0.25 1
0.5 1 0.25 1
0.5 1 0.25 1
0.5 1 0.25 1
0.5 1 0.25 1
0.5 1 0.25 1
0.5 1 0.25 1
0.5 1 0.25 1
0.5 1 0.25 1
0.5 1 0.25 1
0.5 1 0.25 1
0.5 1 0.25 1
0.5 1 0.25 1
0.5 1 0.25 1
0.5 1 0.25 1
0.5 1 0.25 1
0.5 1 0.25 1
0.5 1 0.25 1
0.5 1 0.25 1
0.5 1 0.25 1
0.5 1 0.25 1
0.5 1 0.25 1
0.5 1 0.25 1
0.5 1 0.25 1
0.5 1 0.25 1
0.5 1 0.25 1
0.5 1 0.25 1
0.5 1 0.25 1
0.5 1 0.25 1
0.5 1 0.25 1
0.5 1 0.25 1
0.5 1 0.25 1
0.5 1 0.25 1
0.5 1 0.25 1
0.5 1 0.25 1
0.5 1 0.25 1
0.5 1 0.25 1
0.5 1 0.25 1
0.5 1 0.25 1
0.5 1 0.25 1
0.5 1 0.25 1
0.5 1 0.25 1
0.5 1 0.25 1
0.5 1 0.25 1
0.5 1 0.25 1
0.5 1 0.25 1
0.5 1 0.25 1
0.5 1 0.25 1
0.5 1 0.25 1
0.5 1 0.25 1
0.5 1 0.25 1
0.5 1 0.25 1
0.5 1 0.25 1
0.5 1 0.25 1
0.5 1 0.25 1
0.5 1 0.25 1
0.5 1 0.25 1
0.5 1 0.25 1
0.5 1 0.25 1
0.5 1 0.25 1
0.5 1 0.25 1
0.5 1 0.25 1
0.5 1 0.25 1
0.5 1 0.25 1
0.5 1 0.25 1
0.5 1 0.25 1
0.5 1 0.25 1
0.5 1 0.25 1
0.5 1 0.25 1
0.5 1 0.25 1
0.5 1 0.25 1
0.5 1 0.25 1
0.5 1 0.25 1
0.5 1 0.25 1
0.5 1 0.25 1
0.5 1 0.25 1
0.5 1 0.25 1
0.5 1 0.25 1
0.5 1 0.25 1
0.5 1 0.25 1
0.5 1 0.25 1
0.5 1 0.25 1
0.5 1 0.25 1
0.5 1 0.25 1
0.5 1 0.25 1
0.5 1 0.25 1
0.5 1 0.25 1
0.5 1 0.25 1
0.5 1 0.25 1
0.5 1 0.25 1
0.5 1 0.25 1
0.5 1 0.25 1
0.5 1 0.25 1
0.5 1 0.25 1
0.5 1 0.25 1
0.5 1 0.25 1
0.5 1 0.25 1
0.5 1 0.25 1
0.5 1 0.25 1
0.5 1 0.25 1
0.5 1 0.25 1
0.5 1 0.25 1
0.5 1 0.25 1
0.5 1 0.25 1
0.5 1 0.25 1
0.5 1 0.25 1
0.5 1 0.25 1
0.5 1 0.25 1
0.5 1 0.25 1
0.5 1 0.25 1
0.5 1 0.25 1
0.5 1 0.25 1
0.5 1 0.25 1
0.5 1 0.25 1
0.5 1 0.25 1
0.5 1 0.25 1
0.5 1 0.25 1
0.5 1 0.25 1
0.5 1 0.25 1
0.5 1 0.25 1
0.5 1 0.25 1
0.5 1 0.25 1
0.5 1 0.25 1
0.5 1 0.25 1
0.5 1 0.25 1
0.5 1 0.25 1
0.5 1 0.25 1
0.5 1 0.25 1
0.5 1 0.25 1
0.5 1 0.25 1
0.5 1 0.25 1
0.5 1 0.25 1
0.5 1 0.25 1
0.5 1 0.25 1
0.5 1 0.25 1
0.5 1 0.25 1
0.5 1 0.25 1
0.5 1 0.25 1
0.5 1 0.25 1
0.5 1 0.25 1
0.5 1 0.25 1
0.5 1 0.25 1
0.5 1 0.25 1
0.5 1 0.25 1
0.5 1 0.25 1
0.5 1 0.25 1
0.5 1 0.25 1
0.5 1 0.25 1
0.5 1 0.25 1
0.5 1 0.25 1
0.5 1 0.25 1
0.5 1 0.25 1
0.5 1 0.25 1
0.5 1 0.25 1
0.5 1 0.25 1
0.5 1 0.25 1
0.5 1 0.25 1
0.5 1 0.25 1
0.5 1 0.25 1
0.5 1 0.25 1
0.5 1 0.25 1
0.5 1 0.25 1
0.5 1 0.25 1
0.5 1 0.25 1
0.5 1 0.25 1
0.5 1 0.25 1
0.5 1 0.25 1
0.5 1 0.25 1
0.5 1 0.25 1
0.5 1 0.25 1
0.5 1 0.25 1
0.5 1 0.25 1
0.5 1 0.25 1
0.5 1 0.25 1
0.5 1 0.25 1
0.5 1 0.25 1
0.5 1 0.25 1
0.5 1 0.25 1
0.5 1 0.25 1
0.5 1 0.25 1
0.5 1 0.25 1
0.5 1 0.25 1
0.5 1 0.25 1
0.5 1 0.25 1
0.5 1 0.25 1
0.5 1 0.25 1
0.5 1 0.25 1
0.5 1 0.25 1
0.5 1 0.25 1
0.5 1 0.25 1
0.5 1 0.25 1
0.5 1 0.25 1
0.5 1 0.25 1
0.5 1 0.25 1
0.5 1 0.25 1
0.5 1 0.25 1
0.5 1 0.25 1
0.5 1 0.25 1
0.5 1 0.25 1
0.5 1 0.25 1
0.5 1 0.25 1
0.5 1 0.25 1
0.5 1 0.25 1
0.5 1 0.25 1
0.5 1 0.25 1
0.5 1 0.25 1
0.5 1 0.25 1
0.5 1 0.25 1
0.5 1 0.25 1
0.5 1 0.25 1
0.5 1 0.25 1
0.5 1 0.25 1
0.5 1 0.25 1
0.5 1 0.25 1
0.5 1 0.25 1
0.5 1 0.25 1
0.5 1 0.25 1
0.5 1 0.25 1
0.5 1 0.25 1
0.5 1 0.25 1
0.5 1 0.25 1
0.5 1 0.25 1
0.5 1 0.25 1
0.5 1 0.25 1
0.5 1 0.25 1
0.5 1 0.25 1
0.5 1 0.25 1
0.5 1 0.25 1
0.5 1 0.25 1
0.5 1 0.25 1
0.5 1 0.25 1
0.5 1 0.25 1
0.5 1 0.25 1
0.5 1 0.25 1
0.5 1 0.25 1
0.5 1 0.25 1
0.5 1 0.25 1
0.5 1 0.25 1
0.5 1 0.25 1
0.5 1 0.25 1
0.5 1 0.25 1
0.5 1 0.25 1
0.5 1 0.25 1
0.5 1 0.25 1
0.5 1 0.25 1
0.5 1 0.25 1
0.5 1 0.25 1
0.5 1 0.25 1
0.5 1 0.25 1
0.5 1 0.25 1
0.5 1 0.25 1
0.5 1 0.25 1
0.5 1 0.25 1
0.5 1 0.25 1
0.5 1 0.25 1
0.5 1 0.25 1
0.5 1 0.25 1
0.5 1 0.25 1
0.5 1 0.25 1
0.5 1 0.25 1
0.5 1 0.25 1
0.5 1 0.25 1
0.5 1 0.25 1
0.5 1 0.25 1
0.5 1 0.25 1
0.5 1 0.25 1
0.5 1 0.25 1
0.5 1 0.25 1
0.5 1 0.25 1
0.5 1 0.25 1
0.5 1 0.25 1
0.5 1 0.25 1
0.5 1 0.25 1
0.5 1 0.25 1
0.5 1 0.25 1
0.5 1 0.25 1
0.5 1 0.25 1
0.5 1 0.25 1
0.5 1 0.25 1
0.5 1 0.25 1
0.5 1 0.25 1
0.5 1 0.25 1
0.5 1 0.25 1
0.5 1 0.25 1
0.5 1 0.25 1
0.5 1 0.25 1
0.5 1 0.25 1
0.5 1 0.25 1
0.5 1 0.25 1
0.5 1 0.25 1
0.5 1 0.25 1
0.5 1 0.25 1
0.5 1 0.25 1
0.5 1 0.25 1
0.5 1 0.25 1
0.5 1 0.25 1
0.5 1 0.25 1
0.5 1 0.25 1
0.5 1 0.25 1
0.5 1 0.25 1
0.5 1 0.25 1
0.5 1 0.25 1
0.5 1 0.25 1
0.5 1 0.25 1
0.5 1 0.25 1
0.5 1 0.25 1
0.5 1 0.25 1
0.5 1 0.25 1
0.5 1 0.25 1
0.5 1 0.25 1
0.5 1 0.25 1
0.5 1 0.25 1
0.5 1 0.25 1
0.5 1 0.25 1
0.5 1 0.25 1
0.5 1 0.25 1
0.5 1 0.25 1
0.5 1 0.25 1
0.5 1 0.25 1
0.5 1 0.25 1
0.5 1 0.25 1
0.5 1 0.25 1
0.5 1 0.25 1
0.5 1 0.25 1
0.5 1 0.25 1
0.5 1 0.25 1
0.5 1 0.25 1
0.5 1 0.25 1
0.5 1 0.25 1
0.5 1 0.25 1
0.5 1 0.25 1
0.5 1 0.25 1
0.5 1 0.25 1
0.5 1 0.25 1
0.5 1 0.25 1
0.5 1 0.25 1
0.5 1 0.25 1
0.5 1 0.25 1
0.5 1 0.25 1
0.5 1 0.25 1
0.5 1 0.25 1
0.5 1 0.25 1
0.5 1 0.25 1
0.5 1 0.25 1
0.5 1 0.25 1
0.5 1 0.25 1
0.5 1 0.25 1
0.5 1 0.25 1
0.5 1 0.25 1
0.5 1 0.25 1
0.5 1 0.25 1
0.5 1 0.25 1
0.5 1 0.25 1
0.5 1 0.25 1
0.5 1 0.25 1
0.5 1 0.25 1
0.5 1 0.25 1
0.5 1 0.25 1
0.5 1 0.25 1
0.5 1 0.25 1
0.5 1 0.25 1
0.5 1 0.25 1
0.5 1 0.25 1
0.5 1 0.25 1
0.5 1 0.25 1
0.5 1 0.25 1
0.5 1 0.25 1
0.5 1 0.25 1
0.5 1 0.25 1
0.5 1 0.25 1
0.5 1 0.25 1
0.5 1 0.25 1
0.5 1 0.25 1
0.5 1 0.25 1
0.5 1 0.25 1
0.5 1 0.25 1
0.5 1 0.25 1
0.5 1 0.25 1
0.5 1 0.25 1
0.5 1 0.25 1
0.5 1 0.25 1
0.5 1 0.25 1
0.5 1 0.25 1
0.5 1 0.25 1
0.5 1 0.25 1
0.5 1 0.25 1
0.5 1 0.25 1
0.5 1 0.25 1
0.5 1 0.25 1
0.5 1 0.25 1
0.5 1 0.25 1
0.5 1 0.25 1
0.5 1 0.25 1
0.5 1 0.25 1
0.5 1 0.25 1
0.5 1 0.25 1
0.5 1 0.25 1
0.5 1 0.25 1
0.5 1 0.25 1
0.5 1 0.25 1
0.5 1 0.25 1
0.5 1 0.25 1
0.5 1 0.25 1
0.5 1 0.25 1
0.5 1 0.25 1
0.5 1 0.25 1
0.5 1 0.25 1
0.5 1 0.25 1
0.5 1 0.25 1
0.5 1 0.25 1
0.5 1 0.25 1
0.5 1 0.25 1
0.5 1 0.25 1
0.5 1 0.25 1
0.5 1 0.25 1
0.5 1 0.25 1
0.5 1 0.25 1
0.5 1 0.25 1
0.5 1 0.25 1
0.5 1 0.25 1
0.5 1 0.25 1
0.5 1 0.25 1
0.5 1 0.25 1
0.5 1 0.25 1
0.5 1 0.25 1
0.5 1 0.25 1
0.5 1 0.25 1
0.5 1 0.25 1
0.5 1 0.25 1
0.5 1 0.25 1
0.5 1 0.25 1
0.5 1 0.25 1
0.5 1 0.25 1
0.5 1 0.25 1
0.5 1 0.25 1
0.5 1 0.25 1
0.5 1 0.25 1
0.5 1 0.25 1
0.5 1 0.25 1
0.5 1 0.25 1
0.5 1 0.25 1
0.5 1 0.25 1
0.5 1 0.25 1
0.5 1 0.25 1
0.5 1 0.25 1
0.5 1 0.25 1
0.5 1 0.25 1
0.5 1 0.25 1
0.5 1 0.25 1
0.5 1 0.25 1
0.5 1 0.25 1
0.5 1 0.25 1
0.5 1 0.25 1
0.5 1 0.25 1
0.5 1 0.25 1
0.5 1 0.25 1
0.5 1 0.25 1
0.5 1 0.25 1
0.5 1 0.25 1
0.5 1 0.25 1
0.5 1 0.25 1
0.5 1 0.25 1
0.5 1 0.25 1
0.5 1 0.25 1
0.5 1 0.25 1
0.5 1 0.25 1
0.5 1 0.25 1
0.5 1 0.25 1
0.5 1 0.25 1
0.5 1 0.25 1
0.5 1 0.25 1
0.5 1 0.25 1
0.5 1 0.25 1
0.5 1 0.25 1
0.5 1 0.25 1
0.5 1 0.25 1
0.5 1 0.25 1
0.5 1 0.25 1
0.5 1 0.25 1
0.5 1 0.25 1
0.5 1 0.25 1
0.5 1 0.25 1
0.5 1 0.25 1
0.5 1 0.25 1
0.5 1 0.25 1
0.5 1 0.25 1
0.5 1 0.25 1
0.5 1 0.25 1
0.5 1 0.25 1
0.5 1 0.25 1
0.5 1 0.25 1
0.5 1 0.25 1
0.5 1 0.25 1
0.5 1 0.25 1
0.5 1 0.25 1
0.5 1 0.25 1
0.5 1 0.25 1
0.5 1 0.25 1
0.5 1 0.25 1
0.5 1 0.25 1
0.5 1 0.25 1
0.5 1 0.25 1
0.5 1 0.25 1
0.5 1 0.25 1
0.5 1 0.25 1
0.5 1 0.25 1
0.5 1 0.25 1
0.5 1 0.25 1
0.5 1 0.25 1
0.5 1 0.25 1
0.5 1 0.25 1
0.5 1 0.25 1
0.5 1 0.25 1
0.5 1 0.25 1
0.5 1 0.25 1
0.5 1 0.25 1
0.5 1 0.25 1
0.5 1 0.25 1
0.5 1 0.25 1
0.5 1 0.25 1
0.5 1 0.25 1
0.5 1 0.25 1
0.5 1 0.25 1
0.5 1 0.25 1
0.5 1 0.25 1
0.5 1 0.25 1
0.5 1 0.25 1
0.5 1 0.25 1
0.5 1 0.25 1
0.5 1 0.25 1
0.5 1 0.25 1
0.5 1 0.25 1
0.5 1 0.25 1
0.5 1 0.25 1
0.5 1 0.25 1
0.5 1 0.25 1
0.5 1 0.25 1
0.5 1 0.25 1
0.5 1 0.25 1
0.5 1 0.25 1
0.5 1 0.25 1
0.5 1 0.25 1
0.5 1 0.25 1
0.5 1 0.25 1
0.5 1 0.25 1
0.5 1 0.25 1
0.5 1 0.25 1
0.5 1 0.25 1
0.5 1 0.25 1
0.5 1 0.25 1
0.5 1 0.25 1
0.5 1 0.25 1
0.5 1 0.25 1
0.5 1 0.25 1
0.5 1 0.25 1
0.5 1 0.25 1
0.5 1 0.25 1
0.5 1 0.25 1
0.5 1 0.25 1
0.5 1 0.25 1
0.5 1 0.25 1
0.5 1 0.25 1
0.5 1 0.25 1
0.5 1 0.25 1
0.5 1 0.25 1
0.5 1 0.25 1
0.5 1 0.25 1
0.5 1 0.25 1
0.5 1 0.25 1
0.5 1 0.25 1
0.5 1 0.25 1
0.5 1 0.25 1
0.5 1 0.25 1
0.5 1 0.25 1
0.5 1 0.25 1
0.5 1 0.25 1
0.5 1 0.25 1
0.5 1 0.25 1
0.5 1 0.25 1
0.5 1 0.25 1
0.5 1 0.25 1
0.5 1 0.25 1
0.5 1 0.25 1
0.5 1 0.25 1
0.5 1 0.25 1
0.5 1 0.25 1
0.5 1 0.25 1
0.5 1 0.25 1
0.5 1 0.25 1
0.5 1 0.25 1
0.5 1 0.25 1
0.5 1 0.25 1
0.5 1 0.25 1
0.5 1 0.25 1
0.5 1 0.25 1
0.5 1 0.25 1
0.5 1 0.25 1
0.5 1 0.25 1
0.5 1 0.25 1
0.5 1 0.25 1
0.5 1 0.25 1
0.5 1 0.25 1
0.5 1 0.25 1
0.5 1 0.25 1
0.5 1 0.25 1
0.5 1 0.25 1
0.5 1 0.25 1
0.5 1 0.25 1
0.5 1 0.25 1
0.5 1 0.25 1
0.5 1 0.25 1
0.5 1 0.25 1
0.5 1 0.25 1
0.5 1 0.25 1
0.5 1 0.25 1
0.5 1 0.25 1
0.5 1 0.25 1
0.5 1 0.25 1
0.5 1 0.25 1
0.5 1 0.25 1
0.5 1 0.25 1
0.5 1 0.25 1
0.5 1 0.25 1
0.5 1 0.25 1
0.5 1 0.25 1
0.5 1 0.25 1
0.5 1 0.25 1
0.5 1 0.25 1
0.5 1 0.25 1
0.5 1 0.25 1
0.5 1 0.25 1
0.5 1 0.25 1
0.5 1 0.25 1
0.5 1 0.25 1
0.5 1 0.25 1
0.5 1 0.25 1
0.5 1 0.25 1
0.5 1 0.25 1
0.5 1 0.25 1
0.5 1 0.25 1
0.5 1 0.25 1
0.5 1 0.25 1
0.5 1 0.25 1
0.5 1 0.25 1
0.5 1 0.25 1
0.5 1 0.25 1
0.5 1 0.25 1
0.5 1 0.25 1
0.5 1 0.25 1
0.5 1 0.25 1
0.5 1 0.25 1
0.5 1 0.25 1
0.5 1 0.25 1
0.5 1 0.25 1
0.5 1 0.25 1
0.5 1 0.25 1
0.5 1 0.25 1
0.5 1 0.25 1
0.5 1 0.25 1
0.5 1 0.25 1
0.5 1 0.25 1
0.5 1 0.25 1
0.5 1 0.25 1
0.5 1 0.25 1
0.5 1 0.25 1
0.5 1 0.25 1
0.5 1 0.25 1
0.5 1 0.25 1
0.5 1 0.25 1
0.5 1 0.25 1
0.5 1 0.25 1
0.5 1 0.25 1
0.5 1 0.25 1
0.5 1 0.25 1
0.5 1 0.25 1
0.5 1 0.25 1
0.5 1 0.25 1
0.5 1 0.25 1
0.5 1 0.25 1
0.5 1 0.25 1
0.5 1 0.25 1
0.5 1 0.25 1
0.5 1 0.25 1
0.5 1 0.25 1
0.5 1 0.25 1
0.5 1 0.25 1
0.5 1 0.25 1
0.5 1 0.25 1
0.5 1 0.25 1
0.5 1 0.25 1
0.5 1 0.25 1
0.5 1 0.25 1
0.5 1 0.25 1
0.5 1 0.25 1
0.5 1 0.25 1
0.5 1 0.25 1
0.5 1 0.25 1
0.5 1 0.25 1
0.5 1 0.25 1
0.5 1 0.25 1
0.5 1 0.25 1
0.5 1 0.25 1
0.5 1 0.25 1
0.5 1 0.25 1
0.5 1 0.25 1
0.5 1 0.25 1
0.5 1 0.25 1
0.5 1 0.25 1
0.5 1 0.25 1
0.5 1 0.25 1
0.5 1 0.25 1
0.5 1 0.25 1
0.5 1 0.25 1
0.5 1 0.25 1
0.5 1 0.25 1
0.5 1 0.25 1
0.5 1 0.25 1

