# vtk DataFile Version 3.0
Gocad TSurf to VTK
ASCII
DATASET POLYDATA
POINTS 238 float
21609950.000 4575592.500 -222.500
21610500.000 4575740.000 -70.000
21610000.000 4575340.000 -320.000
21610525.000 4575492.500 -73.750
21610325.000 4575892.500 -35.000
21609900.000 4575845.000 -125.000
21610300.000 4576135.000 42.500
21610150.000 4576045.000 0.000
21610850.000 4576350.000 237.500
21610350.000 4576470.000 182.500
21611100.000 4576290.000 265.000
21611175.000 4575582.500 222.500
21610975.000 4576447.500 278.750
21610850.000 4576605.000 292.500
21610725.000 4576762.500 306.250
21610600.000 4576920.000 320.000
21610100.000 4576530.000 155.000
21610450.000 4576992.500 261.250
21610200.000 4576332.500 98.750
21609975.000 4576197.500 35.000
21609850.000 4576097.500 -27.500
21609800.000 4576350.000 70.000
21609800.000 4576545.000 60.000
21610050.000 4576870.000 120.000
21609800.000 4576740.000 50.000
21610150.000 4577137.500 143.750
21610525.000 4577362.500 308.750
21610025.000 4577040.000 102.500
21609875.000 4576980.000 61.250
21610000.000 4577210.000 85.000
21609800.000 4577130.000 30.000
21610500.000 4577510.000 305.000
21610350.000 4577702.500 295.000
21610525.000 4577362.500 308.750
21609925.000 4577457.500 108.750
21610400.000 4577727.500 322.500
21610300.000 4577945.000 340.000
21610200.000 4577895.000 285.000
21610200.000 4578162.500 357.500
21609850.000 4577705.000 132.500
21609900.000 4578027.500 211.250
21609750.000 4577665.000 105.000
21609775.000 4577397.500 67.500
21609725.000 4577932.500 142.500
21609775.000 4577952.500 156.250
21609700.000 4578200.000 180.000
21609900.000 4578280.000 265.000
21609750.000 4578882.500 170.000
21610050.000 4578087.500 275.000
21610100.000 4578380.000 375.000
21610200.000 4578162.500 357.500
21610100.000 4578909.266 340.887
21610117.859 4578610.438 368.748
21610095.273 4579002.508 332.125
21610093.664 4579017.508 330.785
21610092.273 4579034.031 329.277
21609800.000 4579565.000 160.000
21610066.984 4579442.594 291.256
21610095.039 4579658.430 290.308
21610096.102 4579669.164 290.277
21609850.000 4580247.500 150.000
21610096.438 4579675.031 290.272
21609950.000 4580292.500 198.750
21609900.000 4580930.000 140.000
21610166.555 4580308.742 288.078
21610181.063 4580391.906 287.534
21610100.000 4580940.000 210.000
21610205.695 4580499.609 289.270
21610286.227 4580958.625 298.459
21610295.555 4580972.008 298.216
21610250.000 4581095.000 228.750
21610100.000 4581080.000 157.500
21610342.969 4581044.500 297.123
21610375.000 4581107.500 291.250
21610450.000 4581255.000 277.500
21610525.000 4581402.500 263.750
21610342.969 4581044.500 297.123
21610100.000 4581360.000 52.500
21610075.000 4581610.000 -66.250
21610200.000 4581230.000 152.500
21610100.000 4581220.000 105.000
21610000.000 4581215.000 70.000
21609950.000 4581072.500 105.000
21609900.000 4581342.500 -47.500
21609900.000 4581480.000 -110.000
21609900.000 4581205.000 15.000
21609900.000 4581067.500 77.500
21609925.000 4581595.000 -148.750
21610025.000 4581830.000 -198.750
21609950.000 4581710.000 -187.500
21610300.000 4581755.000 -7.500
21610000.000 4581940.000 -265.000
21610597.289 4581550.313 248.367
21610597.945 4581551.398 248.239
21610542.711 4581437.336 260.502
21610599.242 4581553.492 247.990
21610575.000 4581665.000 183.750
21610525.000 4581895.000 51.250
21610606.734 4581565.375 246.561
21610743.047 4581686.609 264.173
21610896.992 4581823.516 284.063
21610898.891 4581825.211 284.308
21610943.750 4581865.109 290.105
21611200.000 4582100.000 320.000
21610750.000 4582302.500 -25.000
21610949.484 4581868.711 290.774
21611200.000 4582090.000 320.000
21611229.602 4582116.641 326.907
21610952.961 4581870.898 291.179
21611050.000 4581955.000 302.500
21610964.898 4581878.406 292.571
21611233.219 4582127.680 327.751
21611233.984 4582130.016 327.929
21611328.078 4582235.055 341.114
21611329.203 4582236.313 341.272
21610600.000 4582370.000 -140.000
21610125.000 4582197.500 -318.750
21611576.984 4582512.930 375.994
21611646.648 4582596.773 383.325
21611716.336 4582660.664 389.051
21611736.602 4582681.773 389.207
21611650.000 4582752.500 292.500
21610750.000 4582557.500 -157.500
21611756.680 4582735.094 390.600
21611775.781 4582779.227 393.914
21611828.250 4582900.453 403.017
21611350.000 4582997.500 -42.500
21611855.344 4582963.047 407.717
21611922.961 4583119.250 419.447
21611996.102 4583288.242 432.136
21611996.547 4583289.266 432.213
21611200.000 4583120.000 -210.000
21611050.000 4582932.500 -192.500
21611997.234 4583291.070 432.352
21611825.000 4583357.500 267.500
21611475.000 4583492.500 -67.500
21612000.000 4583297.938 432.877
21612000.000 4583397.500 406.250
21612000.000 4583505.000 377.500
21611998.203 4583297.719 432.936
21611975.000 4583397.500 406.250
21611950.000 4583505.000 377.500
21611925.000 4583612.500 348.750
21612000.000 4583720.000 320.000
21611900.000 4583720.000 320.000
21611975.000 4583842.500 306.250
21611850.000 4583807.500 195.000
21611900.000 4583842.500 306.250
21611950.000 4583965.000 292.500
21611900.000 4584210.000 265.000
21611550.000 4583982.500 -55.000
21611350.000 4583815.000 -207.500
21611400.000 4584070.000 -180.000
21611225.000 4583657.500 -308.750
21611300.000 4583560.000 -235.000
21611000.000 4583950.000 -530.000
21610875.000 4583800.000 -631.250
21610750.000 4583650.000 -732.500
21610625.000 4583500.000 -833.750
21610500.000 4583350.000 -935.000
21610675.000 4583292.500 -753.750
21610450.000 4583242.500 -945.000
21610400.000 4583135.000 -955.000
21610375.000 4583227.500 -997.500
21610250.000 4583105.000 -1060.000
21610300.000 4582920.000 -975.000
21611025.000 4583177.500 -391.250
21610125.000 4582982.500 -1122.500
21610000.000 4582860.000 -1185.000
21610000.000 4582710.000 -993.750
21610225.000 4582755.000 -836.250
21610375.000 4582782.500 -766.250
21610000.000 4582560.000 -802.500
21610150.000 4582590.000 -697.500
21610000.000 4582410.000 -611.250
21610075.000 4582425.000 -558.750
21610450.000 4582645.000 -557.500
21610000.000 4582260.000 -420.000
21610000.000 4582180.000 -381.250
21610000.000 4582100.000 -342.500
21610000.000 4582020.000 -303.750
21610375.000 4582072.500 -116.250
21609975.000 4581825.000 -226.250
21609800.000 4576935.000 40.000
21609950.000 4576830.000 92.500
21611175.000 4576100.000 278.750
21610600.000 4574750.000 -85.000
21610150.000 4575192.500 -261.250
21611400.000 4575530.000 320.000
21610900.000 4574747.500 -11.250
21611325.000 4575720.000 306.250
21611250.000 4575910.000 292.500
21611500.000 4575332.500 292.500
21610625.000 4574447.500 -147.500
21610200.000 4574320.000 -320.000
21611500.000 4574742.500 136.250
21611600.000 4575135.000 265.000
21610575.000 4573735.000 -331.250
21611800.000 4574740.000 210.000
21610325.000 4574125.000 -323.750
21610300.000 4573740.000 -417.500
21610250.000 4574030.000 -368.750
21610350.000 4573450.000 -466.250
21610700.000 4573540.000 -335.000
21610400.000 4573160.000 -515.000
21611775.000 4574437.500 266.250
21611450.000 4573532.500 242.500
21611775.000 4574435.000 266.250
21611750.000 4574130.000 322.500
21611725.000 4573825.000 378.750
21610700.000 4572160.000 -225.000
21611675.000 4573192.500 375.000
21610700.000 4573195.000 -307.500
21610450.000 4572555.000 -425.000
21610475.000 4572910.000 -442.500
21610475.000 4572252.500 -380.000
21610500.000 4571950.000 -335.000
21610700.000 4571887.500 -256.250
21610925.000 4572172.500 -120.000
21610550.000 4571730.000 -338.750
21610700.000 4571615.000 -287.500
21610525.000 4571680.000 -362.500
21610600.000 4571510.000 -342.500
21610550.000 4571410.000 -390.000
21610575.000 4571140.000 -417.500
21610700.000 4571070.000 -350.000
21611600.000 4572210.000 195.000
21610600.000 4570870.000 -445.000
21611625.000 4572540.000 255.000
21611650.000 4572865.000 315.000
21611625.000 4572537.500 255.000
21610425.000 4572857.500 -470.000
21611700.000 4573520.000 435.000
21611700.000 4574937.500 237.500
21611700.000 4574937.500 237.500
21610150.000 4574575.000 -320.000
21610100.000 4574830.000 -320.000
21610050.000 4575085.000 -320.000

POLYGONS 333 1332
3 44 39 43
3 134 131 135
3 161 160 162
3 94 75 78
3 134 138 137
3 223 222 220
3 11 186 3
3 183 184 24
3 39 40 37
3 99 98 96
3 198 195 233
3 200 197 202
3 81 83 77
3 132 171 131
3 115 122 121
3 62 63 66
3 222 223 221
3 143 142 134
3 229 230 228
3 72 75 76
3 210 206 209
3 82 66 63
3 169 170 172
3 4 7 6
3 233 195 196
3 65 64 62
3 219 220 222
3 3 2 1
3 1 4 6
3 17 16 23
3 219 217 220
3 74 79 77
3 105 102 103
3 59 58 56
3 27 30 29
3 25 29 31
3 61 59 60
3 117 114 115
3 32 34 37
3 95 90 96
3 145 146 148
3 42 29 30
3 166 131 165
3 163 159 161
3 26 25 31
3 128 127 126
3 9 15 14
3 165 168 167
3 32 35 31
3 16 22 23
3 20 7 5
3 192 189 188
3 213 214 212
3 172 170 173
3 60 59 56
3 43 39 41
3 102 101 97
3 38 48 49
3 210 211 218
3 34 39 37
3 118 117 115
3 206 205 209
3 77 78 75
3 57 55 56
3 160 159 154
3 103 97 104
3 111 107 103
3 235 236 187
3 29 34 32
3 213 231 214
3 35 32 36
3 234 198 233
3 210 213 212
3 28 183 30
3 197 200 199
3 214 231 204
3 199 193 197
3 216 219 221
3 225 224 220
3 9 6 18
3 195 189 196
3 220 217 218
3 69 66 70
3 116 115 104
3 119 118 115
3 120 119 115
3 64 61 62
3 17 15 16
3 66 71 70
3 83 84 77
3 169 165 170
3 120 115 121
3 8 1 6
3 108 105 106
3 3 1 11
3 125 121 126
3 53 51 46
3 132 131 126
3 90 78 88
3 106 105 103
3 135 154 143
3 157 156 153
3 230 226 228
3 147 149 144
3 171 165 131
3 116 179 178
3 56 55 47
3 107 106 103
3 197 203 202
3 79 80 77
3 177 174 175
3 137 140 139
3 6 7 18
3 154 153 151
3 81 85 83
3 13 8 14
3 132 126 122
3 187 237 2
3 142 138 134
3 39 34 41
3 133 130 131
3 155 152 153
3 19 20 21
3 142 141 138
3 22 24 23
3 58 57 56
3 7 4 5
3 115 177 176
3 171 132 176
3 37 48 38
3 195 198 197
3 180 179 116
3 38 50 36
3 133 131 134
3 168 165 169
3 130 129 126
3 62 61 60
3 78 84 87
3 153 154 158
3 60 63 62
3 82 63 86
3 228 226 218
3 225 227 224
3 80 71 81
3 72 69 70
3 131 130 126
3 236 237 187
3 193 189 195
3 170 165 171
3 172 173 174
3 181 116 104
3 68 67 66
3 0 1 2
3 142 143 144
3 102 97 103
3 136 133 134
3 121 122 126
3 210 218 217
3 188 11 190
3 91 88 182
3 113 112 104
3 65 62 66
3 176 132 122
3 71 66 82
3 31 29 32
3 32 37 36
3 91 181 97
3 190 11 191
3 148 149 147
3 8 10 1
3 137 136 134
3 193 199 194
3 186 235 187
3 210 215 213
3 72 70 73
3 193 194 186
3 145 143 146
3 44 43 45
3 148 147 145
3 1 10 11
3 208 205 207
3 55 54 47
3 181 91 180
3 11 188 186
3 203 205 206
3 189 193 186
3 189 192 196
3 189 186 188
3 219 222 221
3 97 181 104
3 229 228 218
3 152 151 153
3 166 165 162
3 88 91 90
3 40 45 46
3 27 28 30
3 226 225 220
3 156 155 153
3 74 77 75
3 25 27 29
3 212 214 204
3 157 153 158
3 177 175 176
3 82 85 81
3 125 124 121
3 147 144 145
3 202 203 204
3 191 11 185
3 41 34 42
3 7 19 18
3 160 154 135
3 71 79 70
3 151 150 146
3 81 71 82
3 40 48 37
3 22 16 21
3 211 209 232
3 40 44 45
3 218 226 220
3 51 52 49
3 19 21 16
3 8 9 14
3 146 154 151
3 12 8 13
3 181 180 116
3 162 160 166
3 92 78 90
3 47 46 45
3 116 178 177
3 129 128 126
3 209 205 208
3 122 115 176
3 174 173 175
3 23 25 17
3 101 100 97
3 9 16 15
3 173 170 171
3 25 26 17
3 176 173 171
3 150 152 149
3 78 87 88
3 196 234 233
3 124 123 121
3 26 33 15
3 74 73 70
3 141 140 138
3 17 26 15
3 79 71 80
3 215 210 216
3 48 46 49
3 212 203 206
3 108 109 110
3 146 149 148
3 3 186 187
3 136 137 139
3 135 143 134
3 112 111 103
3 115 114 104
3 19 7 20
3 98 95 96
3 80 81 77
3 200 201 199
3 93 92 90
3 49 50 38
3 23 184 28
3 87 89 88
3 127 125 126
3 92 94 78
3 216 217 219
3 88 89 182
3 114 113 104
3 210 212 206
3 23 28 27
3 116 177 115
3 40 39 44
3 24 184 23
3 163 161 162
3 212 204 203
3 18 19 16
3 82 86 85
3 199 201 194
3 198 205 203
3 75 72 73
3 131 166 135
3 216 210 217
3 146 143 154
3 193 195 197
3 36 37 38
3 112 103 104
3 9 18 16
3 95 93 90
3 79 74 70
3 175 173 176
3 3 187 2
3 161 159 160
3 74 75 73
3 165 164 162
3 25 23 27
3 150 149 146
3 109 108 106
3 123 120 121
3 152 150 151
3 28 184 183
3 77 84 78
3 11 10 185
3 218 211 229
3 67 65 66
3 97 96 90
3 34 29 42
3 224 223 220
3 235 186 194
3 138 140 137
3 10 8 12
3 4 1 0
3 47 54 46
3 158 154 159
3 5 4 0
3 48 40 46
3 54 53 46
3 198 207 205
3 100 99 96
3 163 162 164
3 31 33 26
3 46 51 49
3 100 96 97
3 210 209 211
3 145 144 143
3 166 160 135
3 90 91 97
3 69 68 66
3 165 167 164
3 198 203 197
3 6 9 8

POINT_DATA 238
COLOR_SCALARS GocadColor 4
0.392157 0.584314 0.929412 1
0.392157 0.584314 0.929412 1
0.392157 0.584314 0.929412 1
0.392157 0.584314 0.929412 1
0.392157 0.584314 0.929412 1
0.392157 0.584314 0.929412 1
0.392157 0.584314 0.929412 1
0.392157 0.584314 0.929412 1
0.392157 0.584314 0.929412 1
0.392157 0.584314 0.929412 1
0.392157 0.584314 0.929412 1
0.392157 0.584314 0.929412 1
0.392157 0.584314 0.929412 1
0.392157 0.584314 0.929412 1
0.392157 0.584314 0.929412 1
0.392157 0.584314 0.929412 1
0.392157 0.584314 0.929412 1
0.392157 0.584314 0.929412 1
0.392157 0.584314 0.929412 1
0.392157 0.584314 0.929412 1
0.392157 0.584314 0.929412 1
0.392157 0.584314 0.929412 1
0.392157 0.584314 0.929412 1
0.392157 0.584314 0.929412 1
0.392157 0.584314 0.929412 1
0.392157 0.584314 0.929412 1
0.392157 0.584314 0.929412 1
0.392157 0.584314 0.929412 1
0.392157 0.584314 0.929412 1
0.392157 0.584314 0.929412 1
0.392157 0.584314 0.929412 1
0.392157 0.584314 0.929412 1
0.392157 0.584314 0.929412 1
0.392157 0.584314 0.929412 1
0.392157 0.584314 0.929412 1
0.392157 0.584314 0.929412 1
0.392157 0.584314 0.929412 1
0.392157 0.584314 0.929412 1
0.392157 0.584314 0.929412 1
0.392157 0.584314 0.929412 1
0.392157 0.584314 0.929412 1
0.392157 0.584314 0.929412 1
0.392157 0.584314 0.929412 1
0.392157 0.584314 0.929412 1
0.392157 0.584314 0.929412 1
0.392157 0.584314 0.929412 1
0.392157 0.584314 0.929412 1
0.392157 0.584314 0.929412 1
0.392157 0.584314 0.929412 1
0.392157 0.584314 0.929412 1
0.392157 0.584314 0.929412 1
0.392157 0.584314 0.929412 1
0.392157 0.584314 0.929412 1
0.392157 0.584314 0.929412 1
0.392157 0.584314 0.929412 1
0.392157 0.584314 0.929412 1
0.392157 0.584314 0.929412 1
0.392157 0.584314 0.929412 1
0.392157 0.584314 0.929412 1
0.392157 0.584314 0.929412 1
0.392157 0.584314 0.929412 1
0.392157 0.584314 0.929412 1
0.392157 0.584314 0.929412 1
0.392157 0.584314 0.929412 1
0.392157 0.584314 0.929412 1
0.392157 0.584314 0.929412 1
0.392157 0.584314 0.929412 1
0.392157 0.584314 0.929412 1
0.392157 0.584314 0.929412 1
0.392157 0.584314 0.929412 1
0.392157 0.584314 0.929412 1
0.392157 0.584314 0.929412 1
0.392157 0.584314 0.929412 1
0.392157 0.584314 0.929412 1
0.392157 0.584314 0.929412 1
0.392157 0.584314 0.929412 1
0.392157 0.584314 0.929412 1
0.392157 0.584314 0.929412 1
0.392157 0.584314 0.929412 1
0.392157 0.584314 0.929412 1
0.392157 0.584314 0.929412 1
0.392157 0.584314 0.929412 1
0.392157 0.584314 0.929412 1
0.392157 0.584314 0.929412 1
0.392157 0.584314 0.929412 1
0.392157 0.584314 0.929412 1
0.392157 0.584314 0.929412 1
0.392157 0.584314 0.929412 1
0.392157 0.584314 0.929412 1
0.392157 0.584314 0.929412 1
0.392157 0.584314 0.929412 1
0.392157 0.584314 0.929412 1
0.392157 0.584314 0.929412 1
0.392157 0.584314 0.929412 1
0.392157 0.584314 0.929412 1
0.392157 0.584314 0.929412 1
0.392157 0.584314 0.929412 1
0.392157 0.584314 0.929412 1
0.392157 0.584314 0.929412 1
0.392157 0.584314 0.929412 1
0.392157 0.584314 0.929412 1
0.392157 0.584314 0.929412 1
0.392157 0.584314 0.929412 1
0.392157 0.584314 0.929412 1
0.392157 0.584314 0.929412 1
0.392157 0.584314 0.929412 1
0.392157 0.584314 0.929412 1
0.392157 0.584314 0.929412 1
0.392157 0.584314 0.929412 1
0.392157 0.584314 0.929412 1
0.392157 0.584314 0.929412 1
0.392157 0.584314 0.929412 1
0.392157 0.584314 0.929412 1
0.392157 0.584314 0.929412 1
0.392157 0.584314 0.929412 1
0.392157 0.584314 0.929412 1
0.392157 0.584314 0.929412 1
0.392157 0.584314 0.929412 1
0.392157 0.584314 0.929412 1
0.392157 0.584314 0.929412 1
0.392157 0.584314 0.929412 1
0.392157 0.584314 0.929412 1
0.392157 0.584314 0.929412 1
0.392157 0.584314 0.929412 1
0.392157 0.584314 0.929412 1
0.392157 0.584314 0.929412 1
0.392157 0.584314 0.929412 1
0.392157 0.584314 0.929412 1
0.392157 0.584314 0.929412 1
0.392157 0.584314 0.929412 1
0.392157 0.584314 0.929412 1
0.392157 0.584314 0.929412 1
0.392157 0.584314 0.929412 1
0.392157 0.584314 0.929412 1
0.392157 0.584314 0.929412 1
0.392157 0.584314 0.929412 1
0.392157 0.584314 0.929412 1
0.392157 0.584314 0.929412 1
0.392157 0.584314 0.929412 1
0.392157 0.584314 0.929412 1
0.392157 0.584314 0.929412 1
0.392157 0.584314 0.929412 1
0.392157 0.584314 0.929412 1
0.392157 0.584314 0.929412 1
0.392157 0.584314 0.929412 1
0.392157 0.584314 0.929412 1
0.392157 0.584314 0.929412 1
0.392157 0.584314 0.929412 1
0.392157 0.584314 0.929412 1
0.392157 0.584314 0.929412 1
0.392157 0.584314 0.929412 1
0.392157 0.584314 0.929412 1
0.392157 0.584314 0.929412 1
0.392157 0.584314 0.929412 1
0.392157 0.584314 0.929412 1
0.392157 0.584314 0.929412 1
0.392157 0.584314 0.929412 1
0.392157 0.584314 0.929412 1
0.392157 0.584314 0.929412 1
0.392157 0.584314 0.929412 1
0.392157 0.584314 0.929412 1
0.392157 0.584314 0.929412 1
0.392157 0.584314 0.929412 1
0.392157 0.584314 0.929412 1
0.392157 0.584314 0.929412 1
0.392157 0.584314 0.929412 1
0.392157 0.584314 0.929412 1
0.392157 0.584314 0.929412 1
0.392157 0.584314 0.929412 1
0.392157 0.584314 0.929412 1
0.392157 0.584314 0.929412 1
0.392157 0.584314 0.929412 1
0.392157 0.584314 0.929412 1
0.392157 0.584314 0.929412 1
0.392157 0.584314 0.929412 1
0.392157 0.584314 0.929412 1
0.392157 0.584314 0.929412 1
0.392157 0.584314 0.929412 1
0.392157 0.584314 0.929412 1
0.392157 0.584314 0.929412 1
0.392157 0.584314 0.929412 1
0.392157 0.584314 0.929412 1
0.392157 0.584314 0.929412 1
0.392157 0.584314 0.929412 1
0.392157 0.584314 0.929412 1
0.392157 0.584314 0.929412 1
0.392157 0.584314 0.929412 1
0.392157 0.584314 0.929412 1
0.392157 0.584314 0.929412 1
0.392157 0.584314 0.929412 1
0.392157 0.584314 0.929412 1
0.392157 0.584314 0.929412 1
0.392157 0.584314 0.929412 1
0.392157 0.584314 0.929412 1
0.392157 0.584314 0.929412 1
0.392157 0.584314 0.929412 1
0.392157 0.584314 0.929412 1
0.392157 0.584314 0.929412 1
0.392157 0.584314 0.929412 1
0.392157 0.584314 0.929412 1
0.392157 0.584314 0.929412 1
0.392157 0.584314 0.929412 1
0.392157 0.584314 0.929412 1
0.392157 0.584314 0.929412 1
0.392157 0.584314 0.929412 1
0.392157 0.584314 0.929412 1
0.392157 0.584314 0.929412 1
0.392157 0.584314 0.929412 1
0.392157 0.584314 0.929412 1
0.392157 0.584314 0.929412 1
0.392157 0.584314 0.929412 1
0.392157 0.584314 0.929412 1
0.392157 0.584314 0.929412 1
0.392157 0.584314 0.929412 1
0.392157 0.584314 0.929412 1
0.392157 0.584314 0.929412 1
0.392157 0.584314 0.929412 1
0.392157 0.584314 0.929412 1
0.392157 0.584314 0.929412 1
0.392157 0.584314 0.929412 1
0.392157 0.584314 0.929412 1
0.392157 0.584314 0.929412 1
0.392157 0.584314 0.929412 1
0.392157 0.584314 0.929412 1
0.392157 0.584314 0.929412 1
0.392157 0.584314 0.929412 1
0.392157 0.584314 0.929412 1
0.392157 0.584314 0.929412 1
0.392157 0.584314 0.929412 1
0.392157 0.584314 0.929412 1
0.392157 0.584314 0.929412 1
0.392157 0.584314 0.929412 1
0.392157 0.584314 0.929412 1
0.392157 0.584314 0.929412 1
0.392157 0.584314 0.929412 1
0.392157 0.584314 0.929412 1
0.392157 0.584314 0.929412 1
0.392157 0.584314 0.929412 1

