# vtk DataFile Version 3.0
Gocad TSurf to VTK
ASCII
DATASET POLYDATA
POINTS 670 float
21571050.000 4585465.000 65.000
21570825.000 4585572.500 90.000
21570850.000 4585705.000 101.250
21570600.000 4585680.000 115.000
21571100.000 4585730.000 87.500
21571000.000 4585340.000 10.000
21571250.000 4585295.000 12.500
21570750.000 4585385.000 7.500
21570750.000 4585345.000 5.000
21570500.000 4585430.000 5.000
21570450.000 4585620.000 87.500
21570375.000 4585432.500 5.000
21570475.000 4585837.500 101.250
21570300.000 4585560.000 60.000
21570700.000 4586010.000 70.000
21570550.000 4586085.000 67.500
21570925.000 4585952.500 67.500
21570925.000 4586002.500 101.250
21571150.000 4585895.000 65.000
21571150.000 4585995.000 132.500
21571350.000 4585755.000 73.750
21571375.000 4585837.500 62.500
21571275.000 4585357.500 40.000
21571500.000 4585250.000 15.000
21571600.000 4585780.000 60.000
21571250.000 4585175.000 5.000
21571000.000 4585260.000 5.000
21571500.000 4585090.000 5.000
21571225.000 4585105.000 -20.000
21571725.000 4585317.500 -6.250
21571725.000 4585437.500 1.250
21571950.000 4585545.000 -17.500
21571950.000 4585625.000 -12.500
21571800.000 4585835.000 35.000
21572175.000 4585772.500 -28.750
21572175.000 4585812.500 -26.250
21572000.000 4585890.000 10.000
21572400.000 4586000.000 -40.000
21572200.000 4585945.000 -15.000
21572200.000 4585995.000 18.750
21572000.000 4585990.000 77.500
21572225.000 4586065.000 22.500
21572050.000 4586130.000 85.000
21572400.000 4586270.000 155.000
21572225.000 4586267.500 168.750
21572600.000 4586262.500 2.500
21572600.000 4586465.000 148.750
21572500.000 4586430.000 195.000
21572800.000 4586525.000 45.000
21572800.000 4586660.000 142.500
21572675.000 4586585.000 178.750
21573000.000 4586787.500 87.500
21573000.000 4586855.000 136.250
21572850.000 4586740.000 162.500
21573200.000 4587050.000 130.000
21573025.000 4586895.000 146.250
21573050.000 4586970.000 132.500
21572900.000 4586890.000 135.000
21573075.000 4587072.500 126.250
21572950.000 4587095.000 122.500
21573100.000 4587110.000 100.000
21573000.000 4587117.500 103.750
21573100.000 4587130.000 130.000
21573000.000 4587132.500 126.250
21572900.000 4587125.000 107.500
21573100.000 4587140.000 130.000
21573000.000 4587140.000 126.250
21572900.000 4587135.000 122.500
21572900.000 4587140.000 122.500
21572800.000 4587137.500 118.750
21572800.000 4587132.500 111.250
21572800.000 4587140.000 118.750
21572700.000 4587140.000 115.000
21572825.000 4587117.500 118.750
21572750.000 4586810.000 137.500
21572600.000 4586730.000 140.000
21572475.000 4587105.000 173.750
21572400.000 4586797.500 192.500
21572250.000 4587070.000 232.500
21572400.000 4586795.000 192.500
21572200.000 4586860.000 245.000
21572375.000 4586745.000 161.250
21572300.000 4586520.000 202.500
21572150.000 4586760.000 182.500
21572300.000 4586387.500 198.750
21572100.000 4586345.000 202.500
21572050.000 4586265.000 182.500
21571900.000 4586302.500 206.250
21571875.000 4586195.000 147.500
21571875.000 4586262.500 196.250
21571700.000 4586260.000 210.000
21571900.000 4586700.000 217.500
21571700.000 4586790.000 225.000
21572100.000 4586610.000 210.000
21571925.000 4586775.000 203.750
21572000.000 4586925.000 297.500
21571862.344 4586969.742 333.635
21571814.766 4586964.594 332.715
21571862.953 4586971.898 333.475
21572000.000 4586932.500 297.500
21571864.719 4586978.156 333.011
21572200.000 4586865.000 245.000
21572025.000 4587035.000 291.250
21571874.516 4587011.594 330.543
21571785.719 4586961.445 332.154
21571603.922 4586946.125 328.281
21571596.500 4586945.500 328.123
21571525.000 4586802.500 238.750
21571535.000 4586940.313 326.813
21571500.000 4586760.000 203.750
21571350.000 4586815.000 252.500
21571500.000 4586362.500 192.500
21571300.000 4586465.000 175.000
21571425.000 4586152.500 181.250
21571250.000 4586325.000 167.500
21571600.000 4585980.000 195.000
21571375.000 4585987.500 163.750
21571800.000 4585985.000 136.250
21571075.000 4586497.500 153.750
21570900.000 4586670.000 140.000
21571100.000 4586567.500 157.500
21570575.000 4586152.500 112.500
21570725.000 4586647.500 165.000
21570450.000 4586295.000 155.000
21570800.000 4586775.000 270.000
21570600.000 4586710.000 260.000
21571000.000 4586840.000 280.000
21571100.000 4586700.000 161.250
21571175.000 4586827.500 266.250
21571300.000 4586730.000 182.500
21571200.000 4586877.500 297.500
21571400.000 4586915.000 315.000
21571200.000 4586880.000 297.500
21571533.172 4586941.641 326.652
21571400.000 4586920.000 315.000
21571527.750 4586945.547 326.178
21570550.000 4586625.000 190.000
21570400.000 4586645.000 250.000
21570325.000 4586437.500 197.500
21570250.000 4586235.000 62.500
21570375.000 4586602.500 215.000
21570200.000 4586580.000 240.000
21570100.000 4586310.000 60.000
21570050.000 4586422.500 236.250
21569975.000 4586220.000 101.250
21569900.000 4586265.000 232.500
21569900.000 4585567.500 60.000
21569800.000 4585695.000 115.000
21570000.000 4585440.000 5.000
21569900.000 4585490.000 18.750
21570225.000 4586152.500 73.750
21570150.000 4585500.000 32.500
21570350.000 4585995.000 87.500
21570125.000 4585437.500 5.000
21570250.000 4585435.000 5.000
21570100.000 4585367.500 -20.000
21570025.000 4585082.500 -143.750
21570150.000 4585105.000 -127.500
21569900.000 4585060.000 -160.000
21569975.000 4584952.500 -157.500
21569875.000 4585350.000 -22.500
21569800.000 4585065.000 -146.250
21569800.000 4585540.000 32.500
21569750.000 4585260.000 -50.000
21569700.000 4585590.000 46.250
21569625.000 4585170.000 -77.500
21569700.000 4585070.000 -132.500
21569600.000 4585640.000 60.000
21569700.000 4585822.500 170.000
21569500.000 4585080.000 -105.000
21569600.000 4585075.000 -118.750
21569450.000 4585157.500 -67.500
21569425.000 4585030.000 -98.750
21569525.000 4585577.500 56.250
21569400.000 4585235.000 -30.000
21569550.000 4585672.500 91.250
21569500.000 4585705.000 122.500
21569550.000 4585905.000 215.000
21569500.000 4585860.000 205.000
21569600.000 4585950.000 225.000
21569725.000 4586040.000 183.750
21569750.000 4586107.500 228.750
21569850.000 4586130.000 142.500
21569450.000 4585815.000 195.000
21569450.000 4585737.500 153.750
21569400.000 4585770.000 185.000
21569450.000 4585515.000 52.500
21569375.000 4585452.500 48.750
21569350.000 4585312.500 7.500
21569300.000 4585390.000 45.000
21569300.000 4585710.000 177.500
21569225.000 4585425.000 72.500
21569200.000 4585650.000 170.000
21569200.000 4585362.500 35.000
21569150.000 4585460.000 100.000
21569125.000 4584980.000 -58.750
21569050.000 4585080.000 -37.500
21569200.000 4584880.000 -80.000
21569075.000 4584852.500 -72.500
21569275.000 4584930.000 -86.250
21569275.000 4584807.500 -135.000
21569350.000 4584980.000 -92.500
21569100.000 4584430.000 -245.000
21569200.000 4584470.000 -258.750
21569000.000 4584515.000 -196.250
21568975.000 4584432.500 -231.250
21568900.000 4584600.000 -147.500
21568850.000 4584435.000 -217.500
21568950.000 4584825.000 -65.000
21568800.000 4584685.000 -98.750
21568975.000 4585180.000 -16.250
21569100.000 4585335.000 25.000
21568825.000 4584797.500 -57.500
21568900.000 4585280.000 5.000
21569000.000 4585307.500 15.000
21568700.000 4584770.000 -50.000
21568650.000 4585272.500 50.000
21568500.000 4584890.000 8.750
21568725.000 4585460.000 162.500
21568450.000 4585390.000 170.000
21569000.000 4585530.000 155.000
21569075.000 4585495.000 127.500
21569100.000 4585590.000 162.500
21568400.000 4585265.000 95.000
21568175.000 4585320.000 177.500
21568300.000 4585010.000 67.500
21568150.000 4585257.500 140.000
21568450.000 4584830.000 -16.250
21568200.000 4584890.000 17.500
21568150.000 4584725.000 -52.500
21568100.000 4585130.000 126.250
21567950.000 4584950.000 51.250
21567925.000 4584867.500 16.250
21567900.000 4585250.000 185.000
21567700.000 4585010.000 85.000
21567775.000 4585280.000 196.250
21567625.000 4585100.000 121.250
21567650.000 4585310.000 207.500
21567625.000 4585100.000 121.250
21567550.000 4585190.000 157.500
21567550.000 4585010.000 80.000
21567100.000 4584430.000 15.000
21567100.000 4584575.000 27.500
21567450.000 4584317.500 -73.750
21567900.000 4584752.500 -21.250
21567425.000 4584210.000 -87.500
21567800.000 4584205.000 -162.500
21567400.000 4584122.500 -50.000
21567750.000 4583990.000 -190.000
21567025.000 4583710.000 -80.000
21567450.000 4583540.000 -135.000
21566600.000 4583880.000 -25.000
21567000.000 4583627.500 -31.250
21566875.000 4584342.500 5.000
21566500.000 4583930.000 -25.000
21567100.000 4584720.000 40.000
21567400.000 4585010.000 75.000
21566650.000 4584255.000 -5.000
21567100.000 4584865.000 52.500
21567250.000 4585010.000 70.000
21566425.000 4584167.500 -15.000
21566400.000 4583980.000 -25.000
21567100.000 4585010.000 65.000
21566200.000 4584080.000 -25.000
21566300.000 4584030.000 -25.000
21565475.000 4585035.000 10.000
21565400.000 4584992.500 -15.000
21566150.000 4585732.500 77.500
21564750.000 4585990.000 45.000
21566200.000 4585767.500 122.500
21565300.000 4586525.000 180.000
21566200.000 4585767.500 122.500
21566425.000 4586037.500 246.250
21565450.000 4586705.000 262.500
21567380.875 4585383.094 230.319
21566425.000 4586037.500 246.250
21567399.031 4585368.844 229.470
21567399.484 4585368.750 229.443
21567401.391 4585368.336 229.330
21567475.000 4585280.000 193.750
21567401.391 4585368.336 229.330
21567550.000 4585190.000 157.500
21567475.000 4585280.000 193.750
21567525.000 4585340.000 218.750
21567419.781 4585365.250 228.219
21567380.875 4585383.094 230.319
21565450.000 4586705.000 262.500
21564475.000 4587372.500 278.750
21564475.000 4587372.500 278.750
21564052.922 4587661.461 285.785
21565300.000 4586525.000 180.000
21564400.000 4587282.500 237.500
21564400.000 4587282.500 237.500
21565200.000 4586455.000 90.000
21564250.000 4587177.500 102.500
21564025.000 4586945.000 80.000
21563796.906 4587790.102 276.031
21563732.344 4587834.695 274.058
21563796.906 4587790.102 276.031
21564013.594 4587679.734 283.841
21564052.922 4587661.461 285.785
21563590.594 4587935.820 271.749
[...]
POINT_DATA 670
COLOR_SCALARS GocadColor 4
0 1 0.48333 1
0 1 0.48333 1
0 1 0.48333 1
0 1 0.48333 1
0 1 0.48333 1
0 1 0.48333 1
0 1 0.48333 1
0 1 0.48333 1
0 1 0.48333 1
0 1 0.48333 1
0 1 0.48333 1
0 1 0.48333 1
0 1 0.48333 1
0 1 0.48333 1
0 1 0.48333 1
0 1 0.48333 1
0 1 0.48333 1
0 1 0.48333 1
0 1 0.48333 1
0 1 0.48333 1
0 1 0.48333 1
0 1 0.48333 1
0 1 0.48333 1
0 1 0.48333 1
0 1 0.48333 1
0 1 0.48333 1
0 1 0.48333 1
0 1 0.48333 1
0 1 0.48333 1
0 1 0.48333 1
0 1 0.48333 1
0 1 0.48333 1
0 1 0.48333 1
0 1 0.48333 1
0 1 0.48333 1
0 1 0.48333 1
0 1 0.48333 1
0 1 0.48333 1
0 1 0.48333 1
0 1 0.48333 1
0 1 0.48333 1
0 1 0.48333 1
0 1 0.48333 1
0 1 0.48333 1
0 1 0.48333 1
0 1 0.48333 1
0 1 0.48333 1
0 1 0.48333 1
0 1 0.48333 1
0 1 0.48333 1
0 1 0.48333 1
0 1 0.48333 1
0 1 0.48333 1
0 1 0.48333 1
0 1 0.48333 1
0 1 0.48333 1
0 1 0.48333 1
0 1 0.48333 1
0 1 0.48333 1
0 1 0.48333 1
0 1 0.48333 1
0 1 0.48333 1
0 1 0.48333 1
0 1 0.48333 1
0 1 0.48333 1
0 1 0.48333 1
0 1 0.48333 1
0 1 0.48333 1
0 1 0.48333 1
0 1 0.48333 1
0 1 0.48333 1
0 1 0.48333 1
0 1 0.48333 1
0 1 0.48333 1
0 1 0.48333 1
0 1 0.48333 1
0 1 0.48333 1
0 1 0.48333 1
0 1 0.48333 1
0 1 0.48333 1
0 1 0.48333 1
0 1 0.48333 1
0 1 0.48333 1
0 1 0.48333 1
0 1 0.48333 1
0 1 0.48333 1
0 1 0.48333 1
0 1 0.48333 1
0 1 0.48333 1
0 1 0.48333 1
0 1 0.48333 1
0 1 0.48333 1
0 1 0.48333 1
0 1 0.48333 1
0 1 0.48333 1
0 1 0.48333 1
0 1 0.48333 1
0 1 0.48333 1
0 1 0.48333 1
0 1 0.48333 1
0 1 0.48333 1
0 1 0.48333 1
0 1 0.48333 1
0 1 0.48333 1
0 1 0.48333 1
0 1 0.48333 1
0 1 0.48333 1
0 1 0.48333 1
0 1 0.48333 1
0 1 0.48333 1
0 1 0.48333 1
0 1 0.48333 1
0 1 0.48333 1
0 1 0.48333 1
0 1 0.48333 1
0 1 0.48333 1
0 1 0.48333 1
0 1 0.48333 1
0 1 0.48333 1
0 1 0.48333 1
0 1 0.48333 1
0 1 0.48333 1
0 1 0.48333 1
0 1 0.48333 1
0 1 0.48333 1
0 1 0.48333 1
0 1 0.48333 1
0 1 0.48333 1
0 1 0.48333 1
0 1 0.48333 1
0 1 0.48333 1
0 1 0.48333 1
0 1 0.48333 1
0 1 0.48333 1
0 1 0.48333 1
0 1 0.48333 1
0 1 0.48333 1
0 1 0.48333 1
0 1 0.48333 1
0 1 0.48333 1
0 1 0.48333 1
0 1 0.48333 1
0 1 0.48333 1
0 1 0.48333 1
0 1 0.48333 1
0 1 0.48333 1
0 1 0.48333 1
0 1 0.48333 1
0 1 0.48333 1
0 1 0.48333 1
0 1 0.48333 1
0 1 0.48333 1
0 1 0.48333 1
0 1 0.48333 1
0 1 0.48333 1
0 1 0.48333 1
0 1 0.48333 1
0 1 0.48333 1
0 1 0.48333 1
0 1 0.48333 1
0 1 0.48333 1
0 1 0.48333 1
0 1 0.48333 1
0 1 0.48333 1
0 1 0.48333 1
0 1 0.48333 1
0 1 0.48333 1
0 1 0.48333 1
0 1 0.48333 1
0 1 0.48333 1
0 1 0.48333 1
0 1 0.48333 1
0 1 0.48333 1
0 1 0.48333 1
0 1 0.48333 1
0 1 0.48333 1
0 1 0.48333 1
0 1 0.48333 1
0 1 0.48333 1
0 1 0.48333 1
0 1 0.48333 1
0 1 0.48333 1
0 1 0.48333 1
0 1 0.48333 1
0 1 0.48333 1
0 1 0.48333 1
0 1 0.48333 1
0 1 0.48333 1
0 1 0.48333 1
0 1 0.48333 1
0 1 0.48333 1
0 1 0.48333 1
0 1 0.48333 1
0 1 0.48333 1
0 1 0.48333 1
0 1 0.48333 1
0 1 0.48333 1
0 1 0.48333 1
0 1 0.48333 1
0 1 0.48333 1
0 1 0.48333 1
0 1 0.48333 1
0 1 0.48333 1
0 1 0.48333 1
0 1 0.48333 1
0 1 0.48333 1
0 1 0.48333 1
0 1 0.48333 1
0 1 0.48333 1
0 1 0.48333 1
0 1 0.48333 1
0 1 0.48333 1
0 1 0.48333 1
0 1 0.48333 1
0 1 0.48333 1
0 1 0.48333 1
0 1 0.48333 1
0 1 0.48333 1
0 1 0.48333 1
0 1 0.48333 1
0 1 0.48333 1
0 1 0.48333 1
0 1 0.48333 1
0 1 0.48333 1
0 1 0.48333 1
0 1 0.48333 1
0 1 0.48333 1
0 1 0.48333 1
0 1 0.48333 1
0 1 0.48333 1
0 1 0.48333 1
0 1 0.48333 1
0 1 0.48333 1
0 1 0.48333 1
0 1 0.48333 1
0 1 0.48333 1
0 1 0.48333 1
0 1 0.48333 1
0 1 0.48333 1
0 1 0.48333 1
0 1 0.48333 1
0 1 0.48333 1
0 1 0.48333 1
0 1 0.48333 1
0 1 0.48333 1
0 1 0.48333 1
0 1 0.48333 1
0 1 0.48333 1
0 1 0.48333 1
0 1 0.48333 1
0 1 0.48333 1
0 1 0.48333 1
0 1 0.48333 1
0 1 0.48333 1
0 1 0.48333 1
0 1 0.48333 1
0 1 0.48333 1
0 1 0.48333 1
0 1 0.48333 1
0 1 0.48333 1
0 1 0.48333 1
0 1 0.48333 1
0 1 0.48333 1
0 1 0.48333 1
0 1 0.48333 1
0 1 0.48333 1
0 1 0.48333 1
0 1 0.48333 1
0 1 0.48333 1
0 1 0.48333 1
0 1 0.48333 1
0 1 0.48333 1
0 1 0.48333 1
0 1 0.48333 1
0 1 0.48333 1
0 1 0.48333 1
0 1 0.48333 1
0 1 0.48333 1
0 1 0.48333 1
0 1 0.48333 1
0 1 0.48333 1
0 1 0.48333 1
0 1 0.48333 1
0 1 0.48333 1
0 1 0.48333 1
0 1 0.48333 1
0 1 0.48333 1
0 1 0.48333 1
0 1 0.48333 1
0 1 0.48333 1
0 1 0.48333 1
0 1 0.48333 1
0 1 0.48333 1
0 1 0.48333 1
0 1 0.48333 1
0 1 0.48333 1
0 1 0.48333 1
0 1 0.48333 1
0 1 0.48333 1
0 1 0.48333 1
0 1 0.48333 1
0 1 0.48333 1
0 1 0.48333 1
0 1 0.48333 1
0 1 0.48333 1
0 1 0.48333 1
0 1 0.48333 1
0 1 0.48333 1
0 1 0.48333 1
0 1 0.48333 1
0 1 0.48333 1
0 1 0.48333 1
0 1 0.48333 1
0 1 0.48333 1
0 1 0.48333 1
0 1 0.48333 1
0 1 0.48333 1
0 1 0.48333 1
0 1 0.48333 1
0 1 0.48333 1
0 1 0.48333 1
0 1 0.48333 1
0 1 0.48333 1
0 1 0.48333 1
0 1 0.48333 1
0 1 0.48333 1
0 1 0.48333 1
0 1 0.48333 1
0 1 0.48333 1
0 1 0.48333 1
0 1 0.48333 1
0 1 0.48333 1
0 1 0.48333 1
0 1 0.48333 1
0 1 0.48333 1
0 1 0.48333 1
0 1 0.48333 1
0 1 0.48333 1
0 1 0.48333 1
0 1 0.48333 1
0 1 0.48333 1
0 1 0.48333 1
0 1 0.48333 1
0 1 0.48333 1
0 1 0.48333 1
0 1 0.48333 1
0 1 0.48333 1
0 1 0.48333 1
0 1 0.48333 1
0 1 0.48333 1
0 1 0.48333 1
0 1 0.48333 1
0 1 0.48333 1
0 1 0.48333 1
0 1 0.48333 1
0 1 0.48333 1
0 1 0.48333 1
0 1 0.48333 1
0 1 0.48333 1
0 1 0.48333 1
0 1 0.48333 1
0 1 0.48333 1
0 1 0.48333 1
0 1 0.48333 1
0 1 0.48333 1
0 1 0.48333 1
0 1 0.48333 1
0 1 0.48333 1
0 1 0.48333 1
0 1 0.48333 1
0 1 0.48333 1
0 1 0.48333 1
0 1 0.48333 1
0 1 0.48333 1
0 1 0.48333 1
0 1 0.48333 1
0 1 0.48333 1
0 1 0.48333 1
0 1 0.48333 1
0 1 0.48333 1
0 1 0.48333 1
0 1 0.48333 1
0 1 0.48333 1
0 1 0.48333 1
0 1 0.48333 1
0 1 0.48333 1
0 1 0.48333 1
0 1 0.48333 1
0 1 0.48333 1
0 1 0.48333 1
0 1 0.48333 1
0 1 0.48333 1
0 1 0.48333 1
0 1 0.48333 1
0 1 0.48333 1
0 1 0.48333 1
0 1 0.48333 1
0 1 0.48333 1
0 1 0.48333 1
0 1 0.48333 1
0 1 0.48333 1
0 1 0.48333 1
0 1 0.48333 1
0 1 0.48333 1
0 1 0.48333 1
0 1 0.48333 1
0 1 0.48333 1
0 1 0.48333 1
0 1 0.48333 1
0 1 0.48333 1
0 1 0.48333 1
0 1 0.48333 1
0 1 0.48333 1
0 1 0.48333 1
0 1 0.48333 1
0 1 0.48333 1
0 1 0.48333 1
0 1 0.48333 1
0 1 0.48333 1
0 1 0.48333 1
0 1 0.48333 1
0 1 0.48333 1
0 1 0.48333 1
0 1 0.48333 1
0 1 0.48333 1
0 1 0.48333 1
0 1 0.48333 1
0 1 0.48333 1
0 1 0.48333 1
0 1 0.48333 1
0 1 0.48333 1
0 1 0.48333 1
0 1 0.48333 1
0 1 0.48333 1
0 1 0.48333 1
0 1 0.48333 1
0 1 0.48333 1
0 1 0.48333 1
0 1 0.48333 1
0 1 0.48333 1
0 1 0.48333 1
0 1 0.48333 1
0 1 0.48333 1
0 1 0.48333 1
0 1 0.48333 1
0 1 0.48333 1
0 1 0.48333 1
0 1 0.48333 1
0 1 0.48333 1
0 1 0.48333 1
0 1 0.48333 1
0 1 0.48333 1
0 1 0.48333 1
0 1 0.48333 1
0 1 0.48333 1
0 1 0.48333 1
0 1 0.48333 1
0 1 0.48333 1
0 1 0.48333 1
0 1 0.48333 1
0 1 0.48333 1
0 1 0.48333 1
0 1 0.48333 1
0 1 0.48333 1
0 1 0.48333 1
0 1 0.48333 1
0 1 0.48333 1
0 1 0.48333 1
0 1 0.48333 1
0 1 0.48333 1
0 1 0.48333 1
0 1 0.48333 1
0 1 0.48333 1
0 1 0.48333 1
0 1 0.48333 1
0 1 0.48333 1
0 1 0.48333 1
0 1 0.48333 1
0 1 0.48333 1
0 1 0.48333 1
0 1 0.48333 1
0 1 0.48333 1
0 1 0.48333 1
0 1 0.48333 1
0 1 0.48333 1
0 1 0.48333 1
0 1 0.48333 1
0 1 0.48333 1
0 1 0.48333 1
0 1 0.48333 1
0 1 0.48333 1
0 1 0.48333 1
0 1 0.48333 1
0 1 0.48333 1
0 1 0.48333 1
0 1 0.48333 1
0 1 0.48333 1
0 1 0.48333 1
0 1 0.48333 1
0 1 0.48333 1
0 1 0.48333 1
0 1 0.48333 1
0 1 0.48333 1
0 1 0.48333 1
0 1 0.48333 1
0 1 0.48333 1
0 1 0.48333 1
0 1 0.48333 1
0 1 0.48333 1
0 1 0.48333 1
0 1 0.48333 1
0 1 0.48333 1
0 1 0.48333 1
0 1 0.48333 1
0 1 0.48333 1
0 1 0.48333 1
0 1 0.48333 1
0 1 0.48333 1
0 1 0.48333 1
0 1 0.48333 1
0 1 0.48333 1
0 1 0.48333 1
0 1 0.48333 1
0 1 0.48333 1
0 1 0.48333 1
0 1 0.48333 1
0 1 0.48333 1
0 1 0.48333 1
0 1 0.48333 1
0 1 0.48333 1
0 1 0.48333 1
0 1 0.48333 1
0 1 0.48333 1
0 1 0.48333 1
0 1 0.48333 1
0 1 0.48333 1
0 1 0.48333 1
0 1 0.48333 1
0 1 0.48333 1
0 1 0.48333 1
0 1 0.48333 1
0 1 0.48333 1
0 1 0.48333 1
0 1 0.48333 1
0 1 0.48333 1
0 1 0.48333 1
0 1 0.48333 1
0 1 0.48333 1
0 1 0.48333 1
0 1 0.48333 1
0 1 0.48333 1
0 1 0.48333 1
0 1 0.48333 1
0 1 0.48333 1
0 1 0.48333 1
0 1 0.48333 1
0 1 0.48333 1
0 1 0.48333 1
0 1 0.48333 1
0 1 0.48333 1
0 1 0.48333 1
0 1 0.48333 1
0 1 0.48333 1
0 1 0.48333 1
0 1 0.48333 1
0 1 0.48333 1
0 1 0.48333 1
0 1 0.48333 1
0 1 0.48333 1
0 1 0.48333 1
0 1 0.48333 1
0 1 0.48333 1
0 1 0.48333 1
0 1 0.48333 1
0 1 0.48333 1
0 1 0.48333 1
0 1 0.48333 1
0 1 0.48333 1
0 1 0.48333 1
0 1 0.48333 1
0 1 0.48333 1
0 1 0.48333 1
0 1 0.48333 1
0 1 0.48333 1
0 1 0.48333 1
0 1 0.48333 1
0 1 0.48333 1
0 1 0.48333 1
0 1 0.48333 1
0 1 0.48333 1
0 1 0.48333 1
0 1 0.48333 1
0 1 0.48333 1
0 1 0.48333 1
0 1 0.48333 1
0 1 0.48333 1
0 1 0.48333 1
0 1 0.48333 1
0 1 0.48333 1
0 1 0.48333 1
0 1 0.48333 1
0 1 0.48333 1
0 1 0.48333 1
0 1 0.48333 1
0 1 0.48333 1
0 1 0.48333 1
0 1 0.48333 1
0 1 0.48333 1
0 1 0.48333 1
0 1 0.48333 1
0 1 0.48333 1
0 1 0.48333 1
0 1 0.48333 1
0 1 0.48333 1
0 1 0.48333 1
0 1 0.48333 1
0 1 0.48333 1
0 1 0.48333 1
0 1 0.48333 1
0 1 0.48333 1
0 1 0.48333 1
0 1 0.48333 1
0 1 0.48333 1
0 1 0.48333 1
0 1 0.48333 1
0 1 0.48333 1
0 1 0.48333 1
0 1 0.48333 1
0 1 0.48333 1
0 1 0.48333 1
0 1 0.48333 1
0 1 0.48333 1
0 1 0.48333 1
0 1 0.48333 1
0 1 0.48333 1
0 1 0.48333 1
0 1 0.48333 1
0 1 0.48333 1
0 1 0.48333 1
0 1 0.48333 1
0 1 0.48333 1
0 1 0.48333 1
0 1 0.48333 1
0 1 0.48333 1
0 1 0.48333 1
0 1 0.48333 1
0 1 0.48333 1
0 1 0.48333 1
0 1 0.48333 1
0 1 0.48333 1
0 1 0.48333 1
0 1 0.48333 1
0 1 0.48333 1
0 1 0.48333 1
0 1 0.48333 1
0 1 0.48333 1
0 1 0.48333 1
0 1 0.48333 1
0 1 0.48333 1
0 1 0.48333 1
0 1 0.48333 1
0 1 0.48333 1
0 1 0.48333 1
0 1 0.48333 1
0 1 0.48333 1
0 1 0.48333 1
0 1 0.48333 1
0 1 0.48333 1
0 1 0.48333 1
0 1 0.48333 1

