# vtk DataFile Version 3.0
Gocad TSurf to VTK
ASCII
DATASET POLYDATA
POINTS 169 float
21557275.000 4567982.500 60.000
21557200.000 4568125.000 82.500
21557700.000 4568430.000 70.000
21557600.000 4568620.000 100.000
21557350.000 4567942.500 83.750
21556800.000 4567630.000 65.000
21556850.000 4567535.000 50.000
21557125.000 4568155.000 92.500
21556650.000 4567690.000 85.000
21557050.000 4568180.000 135.000
21556500.000 4567740.000 170.000
21556175.000 4567225.000 77.500
21555950.000 4567300.000 205.000
21556400.000 4567135.000 47.500
21556000.000 4566640.000 30.000
21556425.000 4567087.500 40.000
21556650.000 4566967.500 111.250
21556300.000 4566480.000 125.000
21556200.000 4566410.000 128.750
21556725.000 4566872.500 122.500
21557150.000 4567265.000 120.000
21556500.000 4566400.000 250.000
21556376.109 4566340.535 247.522
21556875.000 4566812.500 216.250
21556900.000 4566770.000 230.000
21557300.000 4567140.000 210.000
21556900.000 4566767.500 230.000
21557300.000 4567135.000 210.000
21556900.000 4566767.500 230.000
21557300.000 4567135.000 210.000
21557700.000 4567502.500 190.000
21557700.000 4567502.500 190.000
21558100.000 4567870.000 170.000
21557700.000 4567510.000 190.000
21558100.000 4567880.000 170.000
21557250.000 4567225.000 182.500
21557625.000 4567637.500 148.750
21557575.000 4567657.500 117.500
21557000.000 4567455.000 97.500
21558000.000 4568050.000 115.000
21558425.000 4568237.500 132.500
21558350.000 4568365.000 91.250
21558425.000 4568230.000 132.500
21558750.000 4568590.000 95.000
21558750.000 4568595.000 95.000
21559075.000 4568950.000 57.500
21559075.000 4568952.500 57.500
21558700.000 4568680.000 67.500
21559400.000 4569310.000 20.000
21559050.000 4568995.000 43.750
21558975.000 4569090.000 32.500
21558950.000 4569137.500 40.000
21558550.000 4568870.000 45.000
21558950.000 4569212.500 40.000
21558500.000 4569015.000 60.000
21559400.000 4569410.000 20.000
21559775.000 4569512.500 -5.000
21558875.000 4569550.000 -23.750
21558450.000 4569240.000 17.500
21559300.000 4569860.000 -65.000
21559775.000 4569587.500 -5.000
21558875.000 4569797.500 -53.750
21558450.000 4569405.000 -2.500
21559300.000 4570190.000 -105.000
21559675.000 4569987.500 -75.000
21558800.000 4570060.000 -65.000
21558400.000 4569580.000 -10.000
21559200.000 4570540.000 -120.000
21559550.000 4570565.000 -113.750
21559625.000 4570302.500 -102.500
21559900.000 4570590.000 -107.500
21559625.000 4570302.500 -102.500
21559950.000 4570415.000 -100.000
21559675.000 4570235.000 -105.000
21559950.000 4570415.000 -100.000
21560050.000 4570115.000 -85.000
21560050.000 4570280.000 -105.000
21559700.000 4569925.000 -68.750
21560100.000 4569990.000 -72.500
21560150.000 4569765.000 -30.000
21560150.000 4569715.000 -30.000
21560525.000 4569917.500 -55.000
21560525.000 4569942.500 -55.000
21560900.000 4570120.000 -80.000
21560500.000 4570055.000 -76.250
21560800.000 4570370.000 -105.000
21560425.000 4570242.500 -95.000
21561325.000 4570350.000 -70.000
21561250.000 4570537.500 -88.750
21561350.000 4570332.500 -72.500
21561400.000 4570312.500 -72.500
21561750.000 4570580.000 -60.000
21561800.000 4570545.000 -65.000
21561700.000 4570705.000 -72.500
21561600.000 4570840.000 -67.500
21562175.000 4570810.000 -50.000
21562150.000 4570872.500 -56.250
21562250.000 4570757.500 -57.500
21562600.000 4571040.000 -40.000
21561900.000 4570505.000 -65.000
21562400.000 4570697.500 -57.500
21561900.000 4570505.000 -65.000
21562400.000 4570697.500 -57.500
21561400.000 4570312.500 -72.500
21562900.000 4570890.000 -50.000
21562700.000 4570970.000 -50.000
21562100.000 4570940.000 -53.750
21562100.000 4570940.000 -53.750
21561600.000 4570840.000 -67.500
21561100.000 4570740.000 -81.250
21561100.000 4570740.000 -81.250
21560600.000 4570640.000 -95.000
21560425.000 4570325.000 -105.000
21560275.000 4570527.500 -97.500
21560275.000 4570527.500 -97.500
21560250.000 4570615.000 -101.250
21558000.000 4569100.000 45.000
21558025.000 4569012.500 48.750
21558025.000 4568930.000 58.750
21558050.000 4568817.500 80.000
21558050.000 4568792.500 80.000
21558500.000 4568965.000 60.000
21558125.000 4568650.000 57.500
21556374.984 4566340.031 247.472
21556376.109 4566340.535 247.522
21556225.000 4566400.000 153.750
21556374.953 4566340.020 247.471
21556225.000 4566400.000 153.750
21556150.000 4566320.000 182.500
21556100.000 4566340.000 132.500
21555975.000 4566530.000 57.500
21556075.000 4566240.000 211.250
21556150.000 4566320.000 182.500
21556000.000 4566270.000 136.250
21555950.000 4566420.000 85.000
21556021.453 4566182.883 231.777
21556075.000 4566240.000 211.250
21556000.000 4566169.793 230.765
21555990.313 4566163.875 230.308
21555900.000 4566200.000 140.000
21555925.000 4566310.000 112.500
21555800.000 4566250.000 115.000
21555850.000 4566347.500 93.750
21555775.000 4566377.500 103.750
21555900.000 4566445.000 72.500
21555600.609 4566290.305 224.579
21555600.797 4566289.840 224.563
21555600.250 4566291.188 224.609
21555625.000 4566407.500 186.250
21555750.000 4566505.000 92.500
21555587.234 4566326.934 225.849
21555552.844 4566431.551 227.136
21555650.000 4566525.000 147.500
21555551.938 4566434.297 227.170
21555506.391 4566572.867 228.875
21555675.000 4566642.500 108.750
21555725.000 4566632.500 81.250
21555505.063 4566576.949 228.925
21555459.953 4566714.184 230.614
21555700.000 4566760.000 70.000
21555458.391 4566718.926 230.672
21555413.500 4566855.500 232.352
21555489.641 4566931.711 234.296
21555950.000 4566542.500 51.250
21556021.453 4566182.883 231.777
21556114.453 4566224.219 235.905
21556127.500 4566230.023 236.485
21556244.703 4566282.121 241.688
21556249.141 4566284.098 241.885

POLYGONS 276 1104
3 163 14 130
3 0 38 6
3 1 5 7
3 48 50 51
3 30 31 32
3 20 38 37
3 64 63 73
3 157 158 155
3 25 33 31
3 77 64 75
3 1 3 2
3 31 33 32
3 93 91 88
3 167 166 132
3 52 121 51
3 106 98 96
3 128 129 18
3 7 8 9
3 113 114 111
3 41 39 122
3 78 84 82
3 151 152 148
3 145 143 141
3 69 63 68
3 13 14 11
3 128 18 127
3 116 117 3
3 79 60 77
3 18 17 127
3 2 3 120
3 150 151 148
3 114 115 111
3 56 55 60
3 60 59 77
3 15 14 13
3 139 141 140
3 73 63 71
3 70 69 68
3 145 141 146
3 76 112 86
3 143 148 149
3 94 93 88
3 4 0 2
3 158 160 159
3 32 34 42
3 131 133 129
3 135 137 133
3 90 99 101
3 61 63 59
3 113 112 76
3 53 51 54
3 38 16 6
3 22 123 17
3 112 85 86
3 94 88 109
3 134 144 130
3 58 57 53
3 92 97 99
3 73 71 74
3 22 21 124
3 49 47 50
3 66 61 62
3 75 73 76
3 72 69 70
3 75 64 73
3 82 79 78
3 108 109 110
3 154 157 155
3 37 35 20
3 19 17 16
3 138 139 133
3 155 159 156
3 11 14 159
3 87 91 89
3 28 21 26
3 48 49 50
3 130 18 129
3 91 87 88
3 100 105 104
3 127 17 125
3 148 152 149
3 16 38 20
3 125 168 132
3 71 69 72
3 144 163 130
3 159 14 156
3 73 74 76
3 122 2 120
3 36 35 37
3 1 7 3
3 90 92 99
3 45 44 46
3 86 85 84
3 58 118 117
3 131 129 128
3 19 16 20
3 141 142 140
3 68 63 67
3 115 72 70
3 56 48 55
3 62 57 58
3 113 111 112
3 8 11 10
3 149 163 144
3 30 27 31
3 8 13 11
3 132 165 136
3 166 165 132
3 134 130 129
3 91 95 92
3 116 62 117
3 149 152 156
3 44 47 46
3 4 2 39
3 4 38 0
3 62 61 57
3 110 109 111
3 95 98 97
3 24 21 23
3 42 34 40
3 57 59 55
3 168 167 132
3 154 155 152
3 36 39 34
3 118 3 117
3 33 34 32
3 149 144 143
3 107 94 108
3 109 85 111
3 7 5 8
3 59 63 64
3 116 66 62
3 5 13 8
3 160 161 159
3 13 5 6
3 43 40 44
3 99 102 101
3 21 22 17
3 159 162 12
3 35 23 20
3 99 100 102
3 71 72 74
3 29 26 27
3 87 83 85
3 81 79 82
3 58 54 118
3 145 147 143
3 130 14 18
3 89 92 90
3 109 88 85
3 7 9 3
3 38 4 37
3 57 55 53
3 121 120 119
3 119 3 118
3 79 77 78
3 147 148 143
3 140 134 133
3 51 121 54
3 53 55 48
3 52 122 121
3 44 41 47
3 88 87 85
3 90 103 83
3 164 135 136
3 114 72 115
3 47 52 50
3 20 23 19
3 122 120 121
3 33 36 34
3 90 101 103
3 37 4 39
3 24 25 27
3 107 98 106
3 76 74 113
3 95 91 93
3 122 39 2
3 17 123 125
3 80 60 79
3 158 159 155
3 140 142 134
3 97 105 100
3 40 41 44
3 153 154 152
3 123 126 125
3 53 54 58
3 165 164 136
3 54 121 119
3 131 128 132
3 97 98 105
3 86 84 78
3 26 21 24
3 27 25 31
3 135 133 131
3 135 131 136
3 77 59 64
3 54 119 118
3 46 47 49
3 106 96 93
3 96 95 93
3 81 82 83
3 99 97 100
3 36 37 39
3 10 11 12
3 141 143 142
3 15 13 6
3 143 144 142
3 25 35 33
3 11 159 12
3 61 59 57
3 134 129 133
3 65 63 61
3 108 94 109
3 60 55 59
3 48 51 53
3 74 72 114
3 89 90 83
3 29 28 26
3 87 89 83
3 81 80 79
3 136 131 132
3 86 75 76
3 139 140 133
3 111 85 112
3 107 106 94
3 128 127 125
3 15 17 14
3 78 75 86
3 132 128 125
3 84 83 82
3 14 17 18
3 96 98 95
3 26 24 27
3 23 35 25
3 106 93 94
3 85 83 84
3 156 163 149
3 66 65 61
3 117 62 58
3 137 138 133
3 74 114 113
3 5 1 0
3 77 75 78
3 19 21 17
3 151 153 152
3 35 36 33
3 42 40 43
3 24 23 25
3 0 1 2
3 71 63 69
3 23 21 19
3 34 39 40
3 92 95 97
3 156 14 163
3 152 155 156
3 80 56 60
3 48 46 49
3 6 16 15
3 47 41 52
3 142 144 134
3 120 3 119
3 40 39 41
3 16 17 15
3 9 8 10
3 43 44 45
3 100 104 102
3 161 162 159
3 48 45 46
3 41 122 52
3 6 5 0
3 50 52 51
3 147 150 148
3 30 29 27
3 126 168 125
3 89 91 92
3 65 67 63

POINT_DATA 169
COLOR_SCALARS GocadColor 4
0.392157 0.584314 0.929412 1
0.392157 0.584314 0.929412 1
0.392157 0.584314 0.929412 1
0.392157 0.584314 0.929412 1
0.392157 0.584314 0.929412 1
0.392157 0.584314 0.929412 1
0.392157 0.584314 0.929412 1
0.392157 0.584314 0.929412 1
0.392157 0.584314 0.929412 1
0.392157 0.584314 0.929412 1
0.392157 0.584314 0.929412 1
0.392157 0.584314 0.929412 1
0.392157 0.584314 0.929412 1
0.392157 0.584314 0.929412 1
0.392157 0.584314 0.929412 1
0.392157 0.584314 0.929412 1
0.392157 0.584314 0.929412 1
0.392157 0.584314 0.929412 1
0.392157 0.584314 0.929412 1
0.392157 0.584314 0.929412 1
0.392157 0.584314 0.929412 1
0.392157 0.584314 0.929412 1
0.392157 0.584314 0.929412 1
0.392157 0.584314 0.929412 1
0.392157 0.584314 0.929412 1
0.392157 0.584314 0.929412 1
0.392157 0.584314 0.929412 1
0.392157 0.584314 0.929412 1
0.392157 0.584314 0.929412 1
0.392157 0.584314 0.929412 1
0.392157 0.584314 0.929412 1
0.392157 0.584314 0.929412 1
0.392157 0.584314 0.929412 1
0.392157 0.584314 0.929412 1
0.392157 0.584314 0.929412 1
0.392157 0.584314 0.929412 1
0.392157 0.584314 0.929412 1
0.392157 0.584314 0.929412 1
0.392157 0.584314 0.929412 1
0.392157 0.584314 0.929412 1
0.392157 0.584314 0.929412 1
0.392157 0.584314 0.929412 1
0.392157 0.584314 0.929412 1
0.392157 0.584314 0.929412 1
0.392157 0.584314 0.929412 1
0.392157 0.584314 0.929412 1
0.392157 0.584314 0.929412 1
0.392157 0.584314 0.929412 1
0.392157 0.584314 0.929412 1
0.392157 0.584314 0.929412 1
0.392157 0.584314 0.929412 1
0.392157 0.584314 0.929412 1
0.392157 0.584314 0.929412 1
0.392157 0.584314 0.929412 1
0.392157 0.584314 0.929412 1
0.392157 0.584314 0.929412 1
0.392157 0.584314 0.929412 1
0.392157 0.584314 0.929412 1
0.392157 0.584314 0.929412 1
0.392157 0.584314 0.929412 1
0.392157 0.584314 0.929412 1
0.392157 0.584314 0.929412 1
0.392157 0.584314 0.929412 1
0.392157 0.584314 0.929412 1
0.392157 0.584314 0.929412 1
0.392157 0.584314 0.929412 1
0.392157 0.584314 0.929412 1
0.392157 0.584314 0.929412 1
0.392157 0.584314 0.929412 1
0.392157 0.584314 0.929412 1
0.392157 0.584314 0.929412 1
0.392157 0.584314 0.929412 1
0.392157 0.584314 0.929412 1
0.392157 0.584314 0.929412 1
0.392157 0.584314 0.929412 1
0.392157 0.584314 0.929412 1
0.392157 0.584314 0.929412 1
0.392157 0.584314 0.929412 1
0.392157 0.584314 0.929412 1
0.392157 0.584314 0.929412 1
0.392157 0.584314 0.929412 1
0.392157 0.584314 0.929412 1
0.392157 0.584314 0.929412 1
0.392157 0.584314 0.929412 1
0.392157 0.584314 0.929412 1
0.392157 0.584314 0.929412 1
0.392157 0.584314 0.929412 1
0.392157 0.584314 0.929412 1
0.392157 0.584314 0.929412 1
0.392157 0.584314 0.929412 1
0.392157 0.584314 0.929412 1
0.392157 0.584314 0.929412 1
0.392157 0.584314 0.929412 1
0.392157 0.584314 0.929412 1
0.392157 0.584314 0.929412 1
0.392157 0.584314 0.929412 1
0.392157 0.584314 0.929412 1
0.392157 0.584314 0.929412 1
0.392157 0.584314 0.929412 1
0.392157 0.584314 0.929412 1
0.392157 0.584314 0.929412 1
0.392157 0.584314 0.929412 1
0.392157 0.584314 0.929412 1
0.392157 0.584314 0.929412 1
0.392157 0.584314 0.929412 1
0.392157 0.584314 0.929412 1
0.392157 0.584314 0.929412 1
0.392157 0.584314 0.929412 1
0.392157 0.584314 0.929412 1
0.392157 0.584314 0.929412 1
0.392157 0.584314 0.929412 1
0.392157 0.584314 0.929412 1
0.392157 0.584314 0.929412 1
0.392157 0.584314 0.929412 1
0.392157 0.584314 0.929412 1
0.392157 0.584314 0.929412 1
0.392157 0.584314 0.929412 1
0.392157 0.584314 0.929412 1
0.392157 0.584314 0.929412 1
0.392157 0.584314 0.929412 1
0.392157 0.584314 0.929412 1
0.392157 0.584314 0.929412 1
0.392157 0.584314 0.929412 1
0.392157 0.584314 0.929412 1
0.392157 0.584314 0.929412 1
0.392157 0.584314 0.929412 1
0.392157 0.584314 0.929412 1
0.392157 0.584314 0.929412 1
0.392157 0.584314 0.929412 1
0.392157 0.584314 0.929412 1
0.392157 0.584314 0.929412 1
0.392157 0.584314 0.929412 1
0.392157 0.584314 0.929412 1
0.392157 0.584314 0.929412 1
0.392157 0.584314 0.929412 1
0.392157 0.584314 0.929412 1
0.392157 0.584314 0.929412 1
0.392157 0.584314 0.929412 1
0.392157 0.584314 0.929412 1
0.392157 0.584314 0.929412 1
0.392157 0.584314 0.929412 1
0.392157 0.584314 0.929412 1
0.392157 0.584314 0.929412 1
0.392157 0.584314 0.929412 1
0.392157 0.584314 0.929412 1
0.392157 0.584314 0.929412 1
0.392157 0.584314 0.929412 1
0.392157 0.584314 0.929412 1
0.392157 0.584314 0.929412 1
0.392157 0.584314 0.929412 1
0.392157 0.584314 0.929412 1
0.392157 0.584314 0.929412 1
0.392157 0.584314 0.929412 1
0.392157 0.584314 0.929412 1
0.392157 0.584314 0.929412 1
0.392157 0.584314 0.929412 1
0.392157 0.584314 0.929412 1
0.392157 0.584314 0.929412 1
0.392157 0.584314 0.929412 1
0.392157 0.584314 0.929412 1
0.392157 0.584314 0.929412 1
0.392157 0.584314 0.929412 1
0.392157 0.584314 0.929412 1
0.392157 0.584314 0.929412 1
0.392157 0.584314 0.929412 1
0.392157 0.584314 0.929412 1
0.392157 0.584314 0.929412 1
0.392157 0.584314 0.929412 1
0.392157 0.584314 0.929412 1

