# vtk DataFile Version 3.0
Gocad TSurf to VTK
ASCII
DATASET POLYDATA
POINTS 300 float
21558250.000 4569880.000 -266.250
21558225.000 4569872.500 -246.250
21558250.000 4569835.000 -232.500
21558200.000 4569820.000 -267.500
21558300.000 4569850.000 -272.500
21558200.000 4569910.000 -260.000
21558150.000 4569850.000 -298.750
21558500.000 4569980.000 -205.000
21558200.000 4570152.500 -270.000
21558475.000 4569932.500 -225.000
21558525.000 4569942.500 -205.000
21558550.000 4569905.000 -205.000
21558750.000 4570002.500 -175.000
21558700.000 4569945.000 -185.000
21558800.000 4570060.000 -165.000
21558650.000 4570265.000 -198.750
21558825.000 4570297.500 -178.750
21558425.000 4570205.000 -228.750
21558500.000 4570470.000 -232.500
21558850.000 4570535.000 -192.500
21558350.000 4570430.000 -252.500
21558200.000 4570395.000 -280.000
21558350.000 4570675.000 -266.250
21558875.000 4570772.500 -206.250
21558275.000 4570655.000 -276.250
21558200.000 4570637.500 -290.000
21558200.000 4570880.000 -300.000
21558900.000 4571010.000 -220.000
21558675.000 4571322.500 -253.750
21558825.000 4571367.500 -220.000
21558150.000 4571225.000 -313.750
21558450.000 4571635.000 -287.500
21558000.000 4571180.000 -341.250
21558100.000 4571570.000 -327.500
21557800.000 4570800.000 -370.000
21557700.000 4571120.000 -393.750
21557900.000 4570577.500 -342.500
21557875.000 4570570.000 -360.000
21558000.000 4570355.000 -315.000
21557950.000 4570340.000 -350.000
21558100.000 4570132.500 -287.500
21558025.000 4570110.000 -340.000
21558100.000 4569880.000 -330.000
21558075.000 4569827.500 -328.750
21558000.000 4569850.000 -370.000
21558150.000 4569805.000 -287.500
21558225.000 4569782.500 -246.250
21558250.000 4569790.000 -236.250
21558300.000 4569760.000 -205.000
21558275.000 4569797.500 -218.750
21558350.000 4569820.000 -278.750
21558450.000 4569885.000 -245.000
21558425.000 4569837.500 -265.000
21558400.000 4569790.000 -285.000
21558575.000 4569867.500 -205.000
21558600.000 4569830.000 -205.000
21558650.000 4569887.500 -195.000
21557950.000 4570087.500 -370.000
21557875.000 4570075.000 -405.000
21557775.000 4570055.000 -448.750
21557900.000 4570325.000 -370.000
21557750.000 4570300.000 -440.000
21557850.000 4570562.500 -370.000
21557625.000 4570525.000 -475.000
21557550.000 4570260.000 -527.500
21557325.000 4570465.000 -606.250
21557675.000 4570037.500 -466.250
21557350.000 4570225.000 -562.500
21557025.000 4570412.500 -658.750
21557100.000 4570670.000 -685.000
21556700.000 4570600.000 -755.000
21557500.000 4570750.000 -510.000
21557375.000 4571050.000 -506.250
21557475.000 4571082.500 -498.750
21557600.000 4571440.000 -417.500
21557250.000 4571350.000 -502.500
21557450.000 4571415.000 -487.500
21557075.000 4570990.000 -637.500
21557050.000 4571310.000 -590.000
21556775.000 4570937.500 -690.000
21556850.000 4571275.000 -625.000
21556925.000 4571612.500 -560.000
21557025.000 4571630.000 -542.500
21557125.000 4571650.000 -498.750
21557000.000 4571950.000 -495.000
21557425.000 4571747.500 -476.250
21557400.000 4572080.000 -465.000
21557500.000 4571760.000 -441.250
21557050.000 4572120.000 -477.500
21557350.000 4572217.500 -455.000
21557425.000 4572242.500 -437.500
21557100.000 4572290.000 -460.000
21557300.000 4572355.000 -445.000
21557150.000 4572460.000 -442.500
21557250.000 4572492.500 -435.000
21557450.000 4572405.000 -410.000
21557200.000 4572630.000 -425.000
21557475.000 4572567.500 -382.500
21557500.000 4572730.000 -355.000
21557625.000 4572612.500 -355.000
21557425.000 4572742.500 -351.250
21557550.000 4572802.500 -345.000
21557200.000 4572667.500 -403.750
21557350.000 4572755.000 -347.500
21557200.000 4572705.000 -382.500
21557275.000 4572767.500 -343.750
21557600.000 4572875.000 -335.000
21557200.000 4572742.500 -361.250
21557200.000 4572780.000 -340.000
21557650.000 4572947.500 -325.000
21557700.000 4573020.000 -315.000
21557725.000 4572975.000 -287.500
21557450.000 4573272.500 -320.000
21557825.000 4573452.500 -301.250
21559300.000 4573840.000 -95.000
21557700.000 4573765.000 -300.000
21557950.000 4573885.000 -287.500
21559025.000 4574067.500 -136.250
21557950.000 4574257.500 -280.000
21558075.000 4574317.500 -273.750
21558750.000 4574295.000 -177.500
21558200.000 4574750.000 -260.000
21558475.000 4574522.500 -218.750
21558800.000 4575000.000 -150.000
21558925.000 4574710.000 -136.250
21558275.000 4574940.000 -228.750
21558725.000 4575127.500 -146.250
21558750.000 4575140.000 -146.250
21558350.000 4575130.000 -197.500
21558650.000 4575255.000 -142.500
21558425.000 4575320.000 -166.250
21558575.000 4575382.500 -138.750
21558700.000 4575280.000 -142.500
21558500.000 4575510.000 -135.000
21558650.000 4575420.000 -138.750
21558600.000 4575560.000 -135.000
21558800.000 4575472.500 -45.000
21558800.000 4575315.000 -80.000
21558800.000 4575630.000 -10.000
21558950.000 4575522.500 -3.750
21559093.031 4575710.828 161.934
21559117.016 4575690.492 161.205
21559086.875 4575716.063 162.122
21559175.000 4575590.000 131.250
21559100.000 4575415.000 2.500
21559175.000 4575597.500 131.250
21559250.000 4575465.000 92.500
21559116.969 4575692.281 161.233
21559116.719 4575700.461 161.361
21559213.688 4575612.977 158.333
21559227.828 4575600.219 157.891
21559276.266 4575556.516 156.378
21559339.578 4575500.828 155.201
21559348.281 4575493.164 155.039
21559325.000 4575332.500 53.750
21559250.000 4575460.000 92.500
21559466.563 4575389.121 152.840
21559471.859 4575384.453 152.741
21559400.000 4575200.000 15.000
21559325.000 4575330.000 53.750
21559593.547 4575277.418 150.479
21559599.156 4575268.949 150.367
21559575.000 4574955.000 18.750
21559375.000 4574860.000 -12.500
21559620.203 4575237.180 149.950
21559725.000 4575015.000 123.750
21559750.000 4574710.000 22.500
21559740.422 4575070.000 147.596
21559763.063 4575039.734 147.534
21559893.703 4574865.047 147.180
21559850.000 4574750.000 92.500
21559937.297 4574806.746 147.062
21560088.281 4574604.871 146.653
21559975.000 4574485.000 61.250
21559925.000 4574465.000 26.250
21560111.547 4574573.754 146.590
21560269.359 4574362.727 146.163
21560100.000 4574220.000 30.000
21560285.781 4574340.762 146.118
21560308.109 4574306.199 146.078
21560325.000 4574215.000 127.500
21560175.000 4574117.500 33.750
21560325.000 4574215.000 127.500
21560350.000 4574080.000 100.000
21560308.109 4574306.199 146.078
21560375.000 4574231.664 145.832
21560391.609 4574213.152 145.771
21560474.000 4574121.336 145.469
21560485.500 4574108.531 145.427
21560375.000 4573945.000 72.500
21560350.000 4574080.000 100.000
21560512.859 4574078.043 145.326
21560567.781 4574015.652 144.819
21560572.188 4574010.730 144.803
21560581.391 4574000.465 144.768
21560400.000 4573810.000 45.000
21560375.000 4573945.000 72.500
21560652.953 4573920.707 144.499
21560671.344 4573900.449 144.495
21560575.000 4573647.500 31.250
21560250.000 4573555.000 13.750
21560689.391 4573887.723 144.498
21560725.453 4573862.289 144.504
21560800.000 4573722.500 113.750
21560750.000 4573485.000 17.500
21560874.578 4573744.875 144.516
21560900.000 4573535.000 72.500
21560900.000 4573724.867 144.518
21561074.625 4573587.387 144.533
21561091.547 4573574.070 144.534
21561000.000 4573347.500 31.250
21560925.000 4573322.500 3.750
21561274.672 4573429.898 144.550
21561287.328 4573419.926 144.551
21561100.000 4573160.000 -10.000
21561474.703 4573272.410 144.567
21561430.891 4573205.371 144.462
21561000.000 4572740.000 78.750
21560700.000 4572650.000 -45.000
21560500.000 4572200.000 2.500
21559800.000 4572790.000 -80.000
21559725.000 4572372.500 -97.500
21559950.000 4573045.000 -48.750
21559700.000 4572952.500 -70.000
21559600.000 4573115.000 -60.000
21559100.000 4572757.500 -81.250
21559200.000 4572985.000 -67.500
21559000.000 4572530.000 -95.000
21558900.000 4572677.500 -73.750
21559125.000 4572177.500 -108.750
21559650.000 4571955.000 -115.000
21558975.000 4572150.000 -126.250
21559250.000 4571825.000 -122.500
21558600.000 4572440.000 -220.000
21558675.000 4572082.500 -220.000
21558600.000 4572610.000 -167.500
21558800.000 4572825.000 -52.500
21558475.000 4572570.000 -171.250
21558600.000 4572780.000 -115.000
21558025.000 4572435.000 -272.500
21558050.000 4572610.000 -190.000
21558000.000 4572260.000 -355.000
21557950.000 4572405.000 -317.500
21558225.000 4571947.500 -321.250
21558050.000 4571915.000 -341.250
21558750.000 4571725.000 -220.000
21558950.000 4571770.000 -157.500
21558925.000 4571390.000 -188.750
21559375.000 4571472.500 -136.250
21559575.000 4571537.500 -132.500
21559500.000 4571120.000 -150.000
21559325.000 4570855.000 -153.750
21559150.000 4570590.000 -157.500
21558975.000 4570325.000 -161.250
21559900.000 4571630.000 -115.000
21560000.000 4571660.000 -73.750
21560300.000 4572140.000 -80.000
21557800.000 4571480.000 -382.500
21557600.000 4571780.000 -423.750
21557875.000 4572377.500 -355.000
21557750.000 4572495.000 -355.000
21557900.000 4572550.000 -280.000
21557850.000 4572695.000 -242.500
21557800.000 4572840.000 -205.000
21558075.000 4572785.000 -107.500
21557775.000 4572885.000 -232.500
21558000.000 4572975.000 -97.500
21557750.000 4572930.000 -260.000
21557900.000 4572990.000 -170.000
21557800.000 4573005.000 -242.500
21557925.000 4573045.000 -238.750
21559125.000 4573660.000 -73.750
21558950.000 4573480.000 -52.500
21559325.000 4573740.000 -81.250
21559350.000 4573640.000 -67.500
21559925.000 4574025.000 12.500
21559750.000 4573830.000 -5.000
21559325.000 4574180.000 -67.500
21559175.000 4574130.000 -108.750
21559050.000 4574420.000 -122.500
21559350.000 4574520.000 -40.000
21559250.000 4575307.500 8.750
21558800.000 4575157.500 -115.000
21560250.000 4574015.000 37.500
21560325.000 4573912.500 41.250
21559575.000 4573635.000 -22.500
21559400.000 4573440.000 -40.000
21559375.000 4573540.000 -53.750
21559500.000 4573277.500 -50.000
21560100.000 4573300.000 -17.500
21559300.000 4573212.500 -53.750
21558600.000 4573120.000 -10.000
21558700.000 4572972.500 -31.250
21558775.000 4573300.000 -31.250
21558375.000 4573095.000 -86.250
21558150.000 4573070.000 -162.500
21558100.000 4572960.000 -25.000
21558225.000 4572830.000 -73.750
21558600.000 4572950.000 -62.500
21558350.000 4572700.000 -122.500

POLYGONS 509 2036
3 112 113 115
3 58 60 61
3 6 5 42
3 56 13 11
3 37 62 39
3 101 265 106
3 250 27 251
3 47 46 48
3 276 283 275
3 238 299 237
3 33 257 32
3 146 150 145
3 65 69 68
3 187 186 183
3 90 259 260
3 171 169 170
3 133 131 134
3 165 166 170
3 206 211 210
3 271 274 273
3 159 158 154
3 136 134 137
3 138 136 139
3 273 274 276
3 76 75 73
3 123 122 124
3 86 87 258
3 191 188 189
3 33 32 30
3 93 92 94
3 23 27 22
3 133 130 131
3 114 273 275
3 192 191 189
3 226 224 290
3 110 114 113
3 256 230 254
3 79 77 80
3 230 249 254
3 291 292 290
3 145 143 146
3 96 98 100
3 102 96 100
3 114 271 273
3 97 94 95
3 130 129 131
3 169 168 165
3 110 270 271
3 165 162 166
3 125 123 126
3 18 23 22
3 77 72 75
3 83 75 76
3 156 153 154
3 150 149 145
3 291 286 293
3 85 76 87
3 84 86 88
3 18 20 17
3 176 175 173
3 90 86 259
3 147 141 145
3 73 71 35
3 151 150 146
3 29 27 247
3 74 35 257
3 218 221 256
3 211 214 210
3 296 263 264
3 137 282 144
3 227 220 225
3 239 237 240
3 91 89 92
3 86 241 259
3 214 220 218
3 71 34 35
3 50 51 4
3 104 102 103
3 183 186 182
3 70 69 79
3 62 34 63
3 230 232 249
3 283 284 196
3 121 118 119
3 7 14 15
3 289 204 200
3 76 74 87
3 56 11 54
3 195 200 199
3 121 123 125
3 86 84 85
3 285 195 284
3 106 103 101
3 185 184 182
3 129 126 127
3 248 250 249
3 96 94 97
3 106 267 109
3 244 258 257
3 64 63 65
3 86 85 87
3 0 7 5
3 108 107 105
3 98 263 101
3 98 97 99
3 241 244 243
3 149 148 145
3 286 290 288
3 195 194 189
3 22 26 24
3 287 286 285
3 36 39 38
3 111 267 269
3 203 204 206
3 79 69 77
3 226 236 225
3 179 180 182
3 233 243 234
3 203 199 204
3 266 296 294
3 60 62 61
3 169 165 170
3 118 116 119
3 233 227 228
3 84 81 82
3 272 274 271
3 114 177 277
3 194 193 189
3 113 117 116
3 131 129 132
3 263 98 99
3 294 291 293
3 233 241 243
3 36 34 37
3 106 265 267
3 275 283 181
3 3 1 6
3 78 75 83
3 235 233 228
3 276 274 285
3 286 291 290
3 0 1 2
3 47 2 3
3 138 135 136
3 73 35 74
3 280 174 166
3 225 220 223
3 265 266 268
3 87 74 258
3 253 252 19
3 24 25 20
3 75 72 73
3 233 234 231
3 247 248 246
3 197 194 195
3 4 49 50
3 140 142 138
3 246 245 247
3 244 33 243
3 279 120 117
3 291 298 292
3 241 86 258
3 47 3 46
3 280 166 163
3 24 26 25
3 11 51 54
3 25 21 20
3 64 65 67
3 226 223 224
3 238 237 235
3 110 108 109
3 61 62 63
3 256 254 255
3 22 24 20
3 101 263 265
3 164 162 165
3 22 20 18
3 125 126 128
3 296 291 294
3 121 119 122
3 30 26 28
3 85 83 76
3 280 279 277
3 290 224 288
3 177 181 180
3 135 133 134
3 116 120 119
3 253 19 16
3 136 137 139
3 132 129 127
3 167 164 165
3 107 104 105
3 247 250 248
3 88 86 89
3 117 114 278
3 183 190 189
3 114 110 271
3 189 188 183
3 72 71 73
3 231 234 246
3 52 53 55
3 238 236 292
3 84 83 85
3 91 92 93
3 148 147 145
3 100 98 101
3 263 99 262
3 225 223 226
3 141 143 145
3 141 139 143
3 296 264 297
3 198 195 199
3 291 296 297
3 63 34 71
3 34 26 32
3 30 28 31
3 155 159 154
3 105 103 106
3 286 288 200
3 33 31 243
3 252 251 23
3 168 167 165
3 123 158 281
3 132 127 282
3 143 155 146
3 201 198 199
3 134 131 132
3 51 9 4
3 124 120 279
3 274 287 285
3 110 109 111
3 58 59 44
3 285 284 276
3 282 123 281
3 116 117 120
3 96 93 94
3 13 10 11
3 2 1 3
3 4 9 0
3 32 26 30
3 220 227 221
3 209 208 206
3 227 233 231
3 261 259 242
3 253 16 14
3 210 209 206
3 298 297 299
3 221 229 230
3 155 144 281
3 58 61 59
3 28 27 29
3 249 250 254
3 123 124 163
3 270 295 272
3 68 69 70
3 198 197 195
3 4 2 49
3 16 15 14
3 62 60 39
3 10 9 11
3 246 232 231
3 92 89 90
3 141 140 139
3 288 224 289
3 180 190 183
3 161 158 162
3 76 73 74
3 219 256 255
3 214 218 217
3 59 66 44
3 181 283 190
3 298 299 238
3 174 177 173
3 237 233 235
3 124 122 120
3 59 61 64
3 13 12 10
3 43 42 44
3 36 37 39
3 196 195 189
3 178 176 177
3 140 138 139
3 40 41 42
3 164 161 162
3 16 19 15
3 259 241 242
3 264 299 297
3 184 179 182
3 69 71 72
3 97 95 99
3 277 177 174
3 221 230 256
3 21 25 38
3 269 268 270
3 15 17 7
3 128 129 130
3 104 103 105
3 286 195 285
3 245 28 29
3 278 114 277
3 95 260 99
3 74 257 258
3 217 218 219
3 251 27 23
3 80 78 81
3 82 78 83
3 268 295 270
3 57 58 44
3 102 100 103
3 20 21 17
3 52 51 50
3 18 17 15
3 295 294 293
3 38 25 36
3 57 44 42
3 170 166 174
3 50 49 48
3 157 156 154
3 200 288 289
3 25 26 36
3 42 5 40
3 88 89 91
3 241 233 239
3 57 60 58
3 292 236 226
3 81 78 82
3 234 245 246
3 67 65 68
3 27 26 22
3 275 273 276
3 3 6 45
3 267 268 269
3 39 60 41
3 9 51 11
3 158 123 163
3 240 261 239
3 246 248 232
3 128 126 129
3 15 19 18
3 137 132 282
3 200 204 199
3 229 232 230
3 213 212 210
3 244 257 33
3 80 77 78
3 60 57 41
3 215 214 216
3 293 286 287
3 261 242 239
3 78 77 75
3 38 39 41
3 177 114 275
3 254 250 255
3 54 52 55
3 202 199 203
3 188 187 183
3 180 181 190
3 264 262 240
3 265 263 266
3 40 21 38
3 6 42 43
3 95 90 260
3 207 205 206
3 41 57 42
3 163 124 280
3 56 54 55
3 143 144 155
3 220 214 222
3 234 243 31
3 109 267 111
3 238 235 236
3 35 32 257
3 115 113 116
3 214 213 210
3 110 269 270
3 289 224 222
3 21 8 17
3 206 205 203
3 293 287 272
3 190 196 189
3 271 270 272
3 163 166 162
3 239 233 237
3 98 96 97
3 281 158 159
3 182 180 183
3 66 64 67
3 215 213 214
3 158 157 154
3 52 50 53
3 0 2 4
3 119 120 122
3 284 195 196
3 232 248 249
3 266 294 295
3 61 63 64
3 223 220 222
3 38 41 40
3 143 139 144
3 279 278 277
3 241 258 244
3 113 114 117
3 276 284 283
3 179 178 177
3 240 299 264
3 227 231 229
3 236 228 225
3 84 82 83
3 240 237 299
3 89 86 90
3 123 121 122
3 262 99 260
3 77 69 72
3 190 283 196
3 134 132 137
3 160 157 158
3 12 7 10
3 59 64 66
3 108 110 112
3 115 116 118
3 103 100 101
3 235 228 236
3 110 111 269
3 26 27 28
3 234 31 245
3 154 153 146
3 46 3 45
3 206 204 211
3 172 171 170
3 65 71 69
3 252 23 19
3 208 207 206
3 94 92 95
3 127 123 282
3 263 262 264
3 202 201 199
3 195 286 200
3 222 211 289
3 35 34 32
3 279 117 278
3 37 34 62
3 19 23 18
3 179 177 180
3 277 174 280
3 17 8 7
3 9 7 0
3 177 275 181
3 161 160 158
3 224 223 222
3 262 261 240
3 268 266 295
3 227 229 221
3 33 30 31
3 49 2 47
3 158 163 162
3 1 5 6
3 272 287 274
3 193 192 189
3 8 21 40
3 112 110 113
3 186 185 182
3 8 40 5
3 261 260 259
3 263 296 266
3 36 26 34
3 212 209 210
3 245 31 28
3 27 250 247
3 291 297 298
3 175 172 173
3 205 202 203
3 245 29 247
3 222 214 211
3 95 92 90
3 242 241 239
3 228 227 225
3 220 221 218
3 272 295 293
3 262 260 261
3 146 155 154
3 124 279 280
3 135 134 136
3 51 52 54
3 176 173 177
3 126 123 127
3 155 281 159
3 289 211 204
3 45 6 43
3 170 174 173
3 8 5 7
3 137 144 139
3 218 256 219
3 267 265 268
3 63 71 65
3 12 14 7
3 282 281 144
3 49 47 48
3 109 105 106
3 298 238 292
3 214 217 216
3 0 5 1
3 153 152 146
3 108 105 109
3 10 7 9
3 152 151 146
3 48 53 50
3 231 232 229
3 290 292 226
3 172 170 173

POINT_DATA 300
COLOR_SCALARS GocadColor 4
0.5 0 0.25 1
0.5 0 0.25 1
0.5 0 0.25 1
0.5 0 0.25 1
0.5 0 0.25 1
0.5 0 0.25 1
0.5 0 0.25 1
0.5 0 0.25 1
0.5 0 0.25 1
0.5 0 0.25 1
0.5 0 0.25 1
0.5 0 0.25 1
0.5 0 0.25 1
0.5 0 0.25 1
0.5 0 0.25 1
0.5 0 0.25 1
0.5 0 0.25 1
0.5 0 0.25 1
0.5 0 0.25 1
0.5 0 0.25 1
0.5 0 0.25 1
0.5 0 0.25 1
0.5 0 0.25 1
0.5 0 0.25 1
0.5 0 0.25 1
0.5 0 0.25 1
0.5 0 0.25 1
0.5 0 0.25 1
0.5 0 0.25 1
0.5 0 0.25 1
0.5 0 0.25 1
0.5 0 0.25 1
0.5 0 0.25 1
0.5 0 0.25 1
0.5 0 0.25 1
0.5 0 0.25 1
0.5 0 0.25 1
0.5 0 0.25 1
0.5 0 0.25 1
0.5 0 0.25 1
0.5 0 0.25 1
0.5 0 0.25 1
0.5 0 0.25 1
0.5 0 0.25 1
0.5 0 0.25 1
0.5 0 0.25 1
0.5 0 0.25 1
0.5 0 0.25 1
0.5 0 0.25 1
0.5 0 0.25 1
0.5 0 0.25 1
0.5 0 0.25 1
0.5 0 0.25 1
0.5 0 0.25 1
0.5 0 0.25 1
0.5 0 0.25 1
0.5 0 0.25 1
0.5 0 0.25 1
0.5 0 0.25 1
0.5 0 0.25 1
0.5 0 0.25 1
0.5 0 0.25 1
0.5 0 0.25 1
0.5 0 0.25 1
0.5 0 0.25 1
0.5 0 0.25 1
0.5 0 0.25 1
0.5 0 0.25 1
0.5 0 0.25 1
0.5 0 0.25 1
0.5 0 0.25 1
0.5 0 0.25 1
0.5 0 0.25 1
0.5 0 0.25 1
0.5 0 0.25 1
0.5 0 0.25 1
0.5 0 0.25 1
0.5 0 0.25 1
0.5 0 0.25 1
0.5 0 0.25 1
0.5 0 0.25 1
0.5 0 0.25 1
0.5 0 0.25 1
0.5 0 0.25 1
0.5 0 0.25 1
0.5 0 0.25 1
0.5 0 0.25 1
0.5 0 0.25 1
0.5 0 0.25 1
0.5 0 0.25 1
0.5 0 0.25 1
0.5 0 0.25 1
0.5 0 0.25 1
0.5 0 0.25 1
0.5 0 0.25 1
0.5 0 0.25 1
0.5 0 0.25 1
0.5 0 0.25 1
0.5 0 0.25 1
0.5 0 0.25 1
0.5 0 0.25 1
0.5 0 0.25 1
0.5 0 0.25 1
0.5 0 0.25 1
0.5 0 0.25 1
0.5 0 0.25 1
0.5 0 0.25 1
0.5 0 0.25 1
0.5 0 0.25 1
0.5 0 0.25 1
0.5 0 0.25 1
0.5 0 0.25 1
0.5 0 0.25 1
0.5 0 0.25 1
0.5 0 0.25 1
0.5 0 0.25 1
0.5 0 0.25 1
0.5 0 0.25 1
0.5 0 0.25 1
0.5 0 0.25 1
0.5 0 0.25 1
0.5 0 0.25 1
0.5 0 0.25 1
0.5 0 0.25 1
0.5 0 0.25 1
0.5 0 0.25 1
0.5 0 0.25 1
0.5 0 0.25 1
0.5 0 0.25 1
0.5 0 0.25 1
0.5 0 0.25 1
0.5 0 0.25 1
0.5 0 0.25 1
0.5 0 0.25 1
0.5 0 0.25 1
0.5 0 0.25 1
0.5 0 0.25 1
0.5 0 0.25 1
0.5 0 0.25 1
0.5 0 0.25 1
0.5 0 0.25 1
0.5 0 0.25 1
0.5 0 0.25 1
0.5 0 0.25 1
0.5 0 0.25 1
0.5 0 0.25 1
0.5 0 0.25 1
0.5 0 0.25 1
0.5 0 0.25 1
0.5 0 0.25 1
0.5 0 0.25 1
0.5 0 0.25 1
0.5 0 0.25 1
0.5 0 0.25 1
0.5 0 0.25 1
0.5 0 0.25 1
0.5 0 0.25 1
0.5 0 0.25 1
0.5 0 0.25 1
0.5 0 0.25 1
0.5 0 0.25 1
0.5 0 0.25 1
0.5 0 0.25 1
0.5 0 0.25 1
0.5 0 0.25 1
0.5 0 0.25 1
0.5 0 0.25 1
0.5 0 0.25 1
0.5 0 0.25 1
0.5 0 0.25 1
0.5 0 0.25 1
0.5 0 0.25 1
0.5 0 0.25 1
0.5 0 0.25 1
0.5 0 0.25 1
0.5 0 0.25 1
0.5 0 0.25 1
0.5 0 0.25 1
0.5 0 0.25 1
0.5 0 0.25 1
0.5 0 0.25 1
0.5 0 0.25 1
0.5 0 0.25 1
0.5 0 0.25 1
0.5 0 0.25 1
0.5 0 0.25 1
0.5 0 0.25 1
0.5 0 0.25 1
0.5 0 0.25 1
0.5 0 0.25 1
0.5 0 0.25 1
0.5 0 0.25 1
0.5 0 0.25 1
0.5 0 0.25 1
0.5 0 0.25 1
0.5 0 0.25 1
0.5 0 0.25 1
0.5 0 0.25 1
0.5 0 0.25 1
0.5 0 0.25 1
0.5 0 0.25 1
0.5 0 0.25 1
0.5 0 0.25 1
0.5 0 0.25 1
0.5 0 0.25 1
0.5 0 0.25 1
0.5 0 0.25 1
0.5 0 0.25 1
0.5 0 0.25 1
0.5 0 0.25 1
0.5 0 0.25 1
0.5 0 0.25 1
0.5 0 0.25 1
0.5 0 0.25 1
0.5 0 0.25 1
0.5 0 0.25 1
0.5 0 0.25 1
0.5 0 0.25 1
0.5 0 0.25 1
0.5 0 0.25 1
0.5 0 0.25 1
0.5 0 0.25 1
0.5 0 0.25 1
0.5 0 0.25 1
0.5 0 0.25 1
0.5 0 0.25 1
0.5 0 0.25 1
0.5 0 0.25 1
0.5 0 0.25 1
0.5 0 0.25 1
0.5 0 0.25 1
0.5 0 0.25 1
0.5 0 0.25 1
0.5 0 0.25 1
0.5 0 0.25 1
0.5 0 0.25 1
0.5 0 0.25 1
0.5 0 0.25 1
0.5 0 0.25 1
0.5 0 0.25 1
0.5 0 0.25 1
0.5 0 0.25 1
0.5 0 0.25 1
0.5 0 0.25 1
0.5 0 0.25 1
0.5 0 0.25 1
0.5 0 0.25 1
0.5 0 0.25 1
0.5 0 0.25 1
0.5 0 0.25 1
0.5 0 0.25 1
0.5 0 0.25 1
0.5 0 0.25 1
0.5 0 0.25 1
0.5 0 0.25 1
0.5 0 0.25 1
0.5 0 0.25 1
0.5 0 0.25 1
0.5 0 0.25 1
0.5 0 0.25 1
0.5 0 0.25 1
0.5 0 0.25 1
0.5 0 0.25 1
0.5 0 0.25 1
0.5 0 0.25 1
0.5 0 0.25 1
0.5 0 0.25 1
0.5 0 0.25 1
0.5 0 0.25 1
0.5 0 0.25 1
0.5 0 0.25 1
0.5 0 0.25 1
0.5 0 0.25 1
0.5 0 0.25 1
0.5 0 0.25 1
0.5 0 0.25 1
0.5 0 0.25 1
0.5 0 0.25 1
0.5 0 0.25 1
0.5 0 0.25 1
0.5 0 0.25 1
0.5 0 0.25 1
0.5 0 0.25 1
0.5 0 0.25 1
0.5 0 0.25 1
0.5 0 0.25 1
0.5 0 0.25 1
0.5 0 0.25 1
0.5 0 0.25 1
0.5 0 0.25 1
0.5 0 0.25 1
0.5 0 0.25 1
0.5 0 0.25 1
0.5 0 0.25 1
0.5 0 0.25 1
0.5 0 0.25 1
0.5 0 0.25 1
0.5 0 0.25 1
0.5 0 0.25 1
0.5 0 0.25 1

