# vtk DataFile Version 3.0
Gocad TSurf to VTK
ASCII
DATASET POLYDATA
POINTS 158 float
21615000.000 4578120.000 587.500
21614925.000 4578210.000 542.500
21614850.000 4578130.000 550.000
21614800.000 4578220.000 505.000
21614950.000 4577950.000 640.000
21615050.000 4578200.000 580.000
21615100.000 4578070.000 628.750
21615100.000 4578295.000 622.500
21615175.000 4578175.000 617.500
21615300.000 4578860.000 725.000
21615325.000 4578737.500 728.750
21615250.000 4578332.500 681.250
21615375.000 4578492.500 736.250
21615375.000 4578492.500 736.250
21615400.000 4578370.000 740.000
21615300.000 4578170.000 655.000
21615150.000 4577792.500 726.250
21615075.000 4577657.500 662.500
21615200.000 4578020.000 670.000
21614900.000 4577215.000 712.500
21614850.000 4577410.000 685.000
21615000.000 4577860.000 685.000
21614684.625 4577408.500 739.122
21614670.430 4577550.648 740.009
21614749.828 4577303.945 741.379
21614670.438 4576898.203 726.274
21614662.188 4576979.391 732.979
21614665.008 4576788.398 713.949
21614681.484 4576710.234 700.482
21614800.000 4577745.000 692.500
21614525.000 4577762.500 565.000
21614700.000 4577810.000 615.000
21614875.000 4577880.000 628.750
21614500.000 4577940.000 460.000
21614100.000 4577380.000 515.000
21614125.000 4577235.000 606.250
21614031.852 4577172.539 628.989
21614443.609 4577357.133 725.729
21614495.727 4577241.523 727.163
21614565.133 4577477.531 733.573
21614573.180 4576923.406 709.758
21614116.586 4577168.094 645.174
21613912.820 4577178.781 606.252
21613275.000 4575782.500 390.000
21613275.000 4575782.500 390.000
21613150.000 4575865.000 390.000
21613200.000 4575945.000 362.500
21613355.742 4575729.211 390.000
21613355.742 4575729.211 390.000
21613375.000 4575945.000 331.250
21613398.867 4575711.086 387.342
21613250.000 4576030.000 327.500
21613450.000 4576027.500 353.750
21613050.000 4575987.500 376.250
21613000.000 4576200.000 320.000
21613025.000 4575947.500 390.000
21612900.000 4576030.000 390.000
21613218.398 4576282.813 395.442
21613286.633 4576192.422 391.612
21613139.227 4576360.109 400.054
21613371.664 4576167.883 386.303
21613417.820 4576138.531 383.519
21613471.930 4576062.594 380.507
21613720.602 4575904.758 365.505
21613725.000 4575895.000 361.250
21613727.766 4575899.430 365.077
21613500.000 4575860.000 335.000
21613625.000 4575752.500 338.750
21613405.594 4575708.953 386.923
21613416.422 4575703.836 386.259
21613553.953 4575638.828 377.825
21613750.000 4575645.000 342.500
21613565.313 4575633.461 377.129
21613850.000 4575820.000 357.500
21613856.984 4575815.805 357.290
21613850.125 4575820.234 357.704
21613732.828 4575895.898 364.773
21613922.695 4575752.109 353.460
21613975.000 4575745.000 353.750
21613886.930 4575797.844 356.392
21613943.016 4575728.508 352.299
21613848.609 4575499.551 359.757
21613962.711 4575720.664 354.365
21614100.000 4575670.000 350.000
21614047.813 4575633.992 352.087
21614035.438 4575805.438 386.126
21614128.031 4575810.172 404.666
21613978.250 4575778.125 369.500
21613965.555 4575766.406 364.610
21614209.211 4575888.422 436.645
21614300.000 4575840.000 420.000
21614290.625 4575870.633 448.287
21614361.688 4575714.570 425.141
21614336.609 4575685.055 415.605
21614450.000 4575777.500 423.750
21614392.039 4575707.945 425.682
21614384.383 4575842.734 460.122
21614462.133 4575804.195 455.909
21614338.375 4575857.484 454.540
21614311.820 4575866.000 451.318
21614494.625 4575788.094 454.148
21614607.742 4575732.031 448.019
21614600.000 4575715.000 427.500
21614646.102 4575713.023 445.940
21614445.961 4575696.172 426.644
21614563.016 4575670.625 428.733
21614637.289 4575551.648 403.366
21614675.000 4575555.000 397.500
21614660.273 4575538.063 401.550
21614750.000 4575652.500 431.250
21614753.352 4575659.867 440.128
21614800.000 4575460.000 390.000
21614844.727 4575518.145 410.127
21614729.406 4575497.195 396.088
21614776.406 4575453.352 394.183
21614786.242 4575444.176 393.784
21614796.148 4575439.586 394.044
21614848.063 4575415.539 395.407
21614845.367 4575461.297 401.666
21614842.258 4575514.070 408.885
21614864.414 4575604.828 434.110
21614302.508 4575644.922 402.638
21614204.664 4575577.898 369.886
21614071.930 4575602.633 350.000
21615275.000 4575417.500 401.250
21615159.008 4575377.547 418.649
21615192.977 4575307.355 411.796
21615400.000 4575360.000 390.000
21615112.328 4575424.145 420.976
21615150.000 4575475.000 412.500
21615066.188 4575470.211 423.276
21615200.000 4575535.000 412.500
21615350.000 4575507.500 401.250
21615025.000 4575532.500 423.750
21615062.094 4575546.945 433.811
21615015.984 4575520.328 425.779
21614998.805 4575537.484 426.635
21614946.352 4575568.680 430.828
21615026.117 4575541.570 429.732
21615030.828 4575540.516 430.017
21615045.813 4575543.281 431.791
21615238.664 4575589.133 457.931
21615400.000 4575582.500 460.000
21615384.586 4575596.758 470.789
21615500.000 4575490.000 390.000
21615500.000 4575480.000 390.000
21615435.086 4575594.344 474.912
21615561.813 4575588.906 485.813
21615408.125 4575595.500 472.593
21615391.523 4575596.211 471.165
21615232.547 4575260.926 408.838
21615305.023 4575231.781 411.370
21613911.461 4575469.840 355.902
21613911.461 4575469.840 355.902
21614000.000 4575430.000 350.000
21614005.852 4575444.035 350.000
21614002.664 4575431.539 350.281
21614002.094 4575429.270 350.331

POLYGONS 196 784
3 21 4 32
3 20 21 29
3 25 19 24
3 16 17 19
3 15 8 18
3 19 20 22
3 1 5 7
3 30 37 39
3 29 31 30
3 3 2 1
3 15 18 17
3 20 19 17
3 29 30 23
3 35 41 40
3 0 1 2
3 17 16 15
3 10 7 11
3 14 12 11
3 22 20 23
3 11 7 8
3 9 10 12
3 10 11 12
3 20 29 23
3 3 1 7
3 7 5 8
3 1 0 5
3 17 21 20
3 29 21 31
3 11 8 15
3 0 6 5
3 2 33 31
3 33 30 31
3 21 32 31
3 12 13 9
3 10 9 7
3 21 18 6
3 33 34 30
3 17 18 21
3 30 35 37
3 35 38 37
3 41 35 36
3 16 14 15
3 6 8 5
3 32 4 2
3 38 35 40
3 19 22 24
3 35 34 36
3 4 6 0
3 21 6 4
3 14 11 15
3 23 30 39
3 33 2 3
3 32 2 31
3 4 0 2
3 30 34 35
3 18 8 6
3 9 3 7
3 28 19 27
3 25 24 26
3 19 25 27
3 34 42 36
3 14 13 12
3 78 85 87
3 83 122 121
3 94 95 104
3 66 52 49
3 49 47 50
3 111 119 112
3 83 86 85
3 94 100 97
3 92 83 93
3 111 107 113
3 64 65 63
3 90 94 96
3 43 48 47
3 73 71 74
3 51 60 58
3 107 109 102
3 107 108 113
3 49 52 51
3 102 94 104
3 95 94 92
3 98 90 96
3 83 78 82
3 71 77 74
3 86 83 89
3 53 46 51
3 94 97 96
3 78 88 79
3 64 75 76
3 83 90 89
3 71 78 77
3 90 91 89
3 67 69 70
3 66 49 68
3 62 52 63
3 110 109 120
3 90 99 91
3 111 116 117
3 52 66 64
3 53 55 45
3 94 101 100
3 123 83 84
3 49 50 68
3 84 83 82
3 67 66 69
3 71 72 81
3 94 90 92
3 90 98 99
3 102 109 110
3 53 56 55
3 75 73 74
3 54 56 53
3 93 83 121
3 78 87 88
3 78 71 80
3 65 64 76
3 77 78 79
3 122 83 123
3 46 44 49
3 103 102 110
3 111 115 116
3 108 107 106
3 49 44 47
3 78 83 85
3 66 67 64
3 111 113 114
3 54 51 57
3 109 112 120
3 105 102 104
3 54 53 51
3 111 114 115
3 51 46 49
3 67 71 73
3 59 54 57
3 90 83 92
3 44 46 45
3 64 73 75
3 101 102 103
3 61 52 62
3 111 118 119
3 52 64 63
3 71 67 70
3 51 58 57
3 44 43 47
3 111 117 118
3 46 53 45
3 66 68 69
3 102 105 106
3 60 52 61
3 94 102 101
3 72 71 70
3 64 67 73
3 43 44 45
3 109 111 112
3 107 111 109
3 107 102 106
3 71 81 80
3 51 52 60
3 78 80 82
3 124 125 126
3 127 124 126
3 129 133 135
3 144 142 132
3 144 147 146
3 127 126 150
3 141 142 143
3 132 145 144
3 133 139 138
3 143 142 149
3 131 142 141
3 142 131 132
3 131 124 132
3 125 124 128
3 129 124 131
3 151 127 150
3 133 134 140
3 124 129 128
3 142 146 148
3 142 144 146
3 133 137 136
3 133 140 139
3 132 127 145
3 134 131 141
3 133 131 134
3 130 129 135
3 124 127 132
3 135 133 136
3 129 131 133
3 133 138 137
3 142 148 149
3 128 129 130
3 152 153 154
3 156 155 154
3 156 154 157
3 155 152 154

POINT_DATA 158
COLOR_SCALARS GocadColor 4
0 1 0.48333 1
0 1 0.48333 1
0 1 0.48333 1
0 1 0.48333 1
0 1 0.48333 1
0 1 0.48333 1
0 1 0.48333 1
0 1 0.48333 1
0 1 0.48333 1
0 1 0.48333 1
0 1 0.48333 1
0 1 0.48333 1
0 1 0.48333 1
0 1 0.48333 1
0 1 0.48333 1
0 1 0.48333 1
0 1 0.48333 1
0 1 0.48333 1
0 1 0.48333 1
0 1 0.48333 1
0 1 0.48333 1
0 1 0.48333 1
0 1 0.48333 1
0 1 0.48333 1
0 1 0.48333 1
0 1 0.48333 1
0 1 0.48333 1
0 1 0.48333 1
0 1 0.48333 1
0 1 0.48333 1
0 1 0.48333 1
0 1 0.48333 1
0 1 0.48333 1
0 1 0.48333 1
0 1 0.48333 1
0 1 0.48333 1
0 1 0.48333 1
0 1 0.48333 1
0 1 0.48333 1
0 1 0.48333 1
0 1 0.48333 1
0 1 0.48333 1
0 1 0.48333 1
0 1 0.48333 1
0 1 0.48333 1
0 1 0.48333 1
0 1 0.48333 1
0 1 0.48333 1
0 1 0.48333 1
0 1 0.48333 1
0 1 0.48333 1
0 1 0.48333 1
0 1 0.48333 1
0 1 0.48333 1
0 1 0.48333 1
0 1 0.48333 1
0 1 0.48333 1
0 1 0.48333 1
0 1 0.48333 1
0 1 0.48333 1
0 1 0.48333 1
0 1 0.48333 1
0 1 0.48333 1
0 1 0.48333 1
0 1 0.48333 1
0 1 0.48333 1
0 1 0.48333 1
0 1 0.48333 1
0 1 0.48333 1
0 1 0.48333 1
0 1 0.48333 1
0 1 0.48333 1
0 1 0.48333 1
0 1 0.48333 1
0 1 0.48333 1
0 1 0.48333 1
0 1 0.48333 1
0 1 0.48333 1
0 1 0.48333 1
0 1 0.48333 1
0 1 0.48333 1
0 1 0.48333 1
0 1 0.48333 1
0 1 0.48333 1
0 1 0.48333 1
0 1 0.48333 1
0 1 0.48333 1
0 1 0.48333 1
0 1 0.48333 1
0 1 0.48333 1
0 1 0.48333 1
0 1 0.48333 1
0 1 0.48333 1
0 1 0.48333 1
0 1 0.48333 1
0 1 0.48333 1
0 1 0.48333 1
0 1 0.48333 1
0 1 0.48333 1
0 1 0.48333 1
0 1 0.48333 1
0 1 0.48333 1
0 1 0.48333 1
0 1 0.48333 1
0 1 0.48333 1
0 1 0.48333 1
0 1 0.48333 1
0 1 0.48333 1
0 1 0.48333 1
0 1 0.48333 1
0 1 0.48333 1
0 1 0.48333 1
0 1 0.48333 1
0 1 0.48333 1
0 1 0.48333 1
0 1 0.48333 1
0 1 0.48333 1
0 1 0.48333 1
0 1 0.48333 1
0 1 0.48333 1
0 1 0.48333 1
0 1 0.48333 1
0 1 0.48333 1
0 1 0.48333 1
0 1 0.48333 1
0 1 0.48333 1
0 1 0.48333 1
0 1 0.48333 1
0 1 0.48333 1
0 1 0.48333 1
0 1 0.48333 1
0 1 0.48333 1
0 1 0.48333 1
0 1 0.48333 1
0 1 0.48333 1
0 1 0.48333 1
0 1 0.48333 1
0 1 0.48333 1
0 1 0.48333 1
0 1 0.48333 1
0 1 0.48333 1
0 1 0.48333 1
0 1 0.48333 1
0 1 0.48333 1
0 1 0.48333 1
0 1 0.48333 1
0 1 0.48333 1
0 1 0.48333 1
0 1 0.48333 1
0 1 0.48333 1
0 1 0.48333 1
0 1 0.48333 1
0 1 0.48333 1
0 1 0.48333 1
0 1 0.48333 1
0 1 0.48333 1
0 1 0.48333 1
0 1 0.48333 1

