# vtk DataFile Version 3.0
Gocad TSurf to VTK
ASCII
DATASET POLYDATA
POINTS 1026 float
21556550.000 4557060.000 -975.000
21556350.000 4557050.000 -1080.000
21556375.000 4556885.000 -1080.000
21556275.000 4556880.000 -1132.500
21556500.000 4557390.000 -975.000
21556725.000 4557235.000 -870.000
21556125.000 4557197.500 -1121.250
21556300.000 4557530.000 -935.000
21556150.000 4557035.000 -1142.500
21555975.000 4557190.000 -1121.250
21556125.000 4556870.000 -1163.750
21556200.000 4556710.000 -1185.000
21555650.000 4556870.000 -1257.500
21555600.000 4556710.000 -1310.000
21555550.000 4556862.500 -1261.250
21555875.000 4556545.000 -1178.750
21555425.000 4556545.000 -1272.500
21555550.000 4556380.000 -1172.500
21555125.000 4556847.500 -1348.750
21555250.000 4556855.000 -1313.750
21555125.000 4556537.500 -1325.000
21554975.000 4556212.500 -1215.000
21555250.000 4556380.000 -1235.000
21555225.000 4556215.000 -1166.250
21554900.000 4556050.000 -1160.000
21554500.000 4556060.000 -1380.000
21554500.000 4556540.000 -1466.250
21554800.000 4555995.000 -1218.750
21554500.000 4555887.500 -1391.250
21554200.000 4555895.000 -1631.250
21554700.000 4555940.000 -1277.500
21554600.000 4555885.000 -1336.250
21554500.000 4555830.000 -1395.000
21554250.000 4555795.000 -1471.250
21553950.000 4555802.500 -1711.250
21554000.000 4555760.000 -1547.500
21553875.000 4556025.000 -1792.500
21553500.000 4555775.000 -1840.000
21553600.000 4556250.000 -1756.250
21553650.000 4555727.500 -1703.750
21553750.000 4555725.000 -1623.750
21553500.000 4555690.000 -1700.000
21553350.000 4555810.000 -1956.250
21553050.000 4555935.000 -1978.750
21552900.000 4555660.000 -1885.000
21553000.000 4555660.000 -1885.000
21553375.000 4555660.000 -1655.000
21553250.000 4555630.000 -1610.000
21552950.000 4555615.000 -1702.500
21553000.000 4555615.000 -1702.500
21553125.000 4555600.000 -1565.000
21552975.000 4555592.500 -1611.250
21553000.000 4555570.000 -1520.000
21552900.000 4555615.000 -1853.750
21552600.000 4555480.000 -1760.000
21552425.000 4555697.500 -1955.000
21552875.000 4555510.000 -1430.000
21552500.000 4555442.500 -1610.000
21552350.000 4555545.000 -1842.500
21552750.000 4555450.000 -1340.000
21552500.000 4555405.000 -1460.000
21552400.000 4555380.000 -1495.000
21552625.000 4555390.000 -1250.000
21552500.000 4555367.500 -1310.000
21552350.000 4555330.000 -1362.500
21552500.000 4555330.000 -1160.000
21552225.000 4555307.500 -1393.750
21552100.000 4555192.500 -1107.500
21551950.000 4555155.000 -1160.000
21551900.000 4555120.000 -1365.000
21551700.000 4555055.000 -1055.000
21551600.000 4555030.000 -1090.000
21551300.000 4554917.500 -1002.500
21551700.000 4555060.000 -1395.000
21551500.000 4554990.000 -1283.750
21551850.000 4555175.000 -1495.000
21551950.000 4555255.000 -1625.000
21551700.000 4555130.000 -1517.500
21551500.000 4555165.000 -1612.500
21551700.000 4555200.000 -1640.000
21551200.000 4554930.000 -1355.000
21550900.000 4555117.500 -1658.750
21551125.000 4554892.500 -1253.750
21551300.000 4554920.000 -1172.500
21550400.000 4554670.000 -1170.000
21550500.000 4554645.000 -1135.000
21550425.000 4554785.000 -1323.750
21550500.000 4555130.000 -1785.000
21550275.000 4554757.500 -1320.000
21550150.000 4554845.000 -1470.000
21549800.000 4554785.000 -1415.000
21549250.000 4554205.000 -955.000
21549075.000 4554712.500 -1461.250
21550250.000 4554567.500 -1138.750
21549525.000 4554232.500 -1000.000
21550400.000 4554632.500 -1152.500
21550400.000 4554520.000 -1100.000
21549700.000 4553937.500 -745.000
21549925.000 4554057.500 -632.500
21549100.000 4553667.500 -703.750
21548950.000 4553335.000 -315.000
21547900.000 4553522.500 -656.250
21548400.000 4553075.000 -362.500
21546200.000 4552550.000 -155.000
21547975.000 4552612.500 2.500
21547850.000 4552547.500 -35.000
21547300.000 4552290.000 68.750
21547120.266 4551979.121 280.836
21547087.984 4551958.063 283.252
21547041.313 4551945.074 285.407
21546500.000 4551580.000 -265.000
21546976.375 4551875.355 292.364
21546425.000 4551822.500 -237.500
21546275.000 4552307.500 -182.500
21546275.000 4551755.000 -198.750
21546100.000 4551935.000 -132.500
21545975.000 4551590.000 -420.000
21545850.000 4551820.000 -280.000
21546100.000 4551360.000 -560.000
21546250.000 4550940.000 -283.750
21545825.000 4551492.500 -420.000
21545900.000 4551230.000 -560.000
21545600.000 4551387.500 -408.750
21545600.000 4551685.000 -272.500
21545400.000 4551282.500 -352.500
21545800.000 4550662.500 -156.250
21545100.000 4550730.000 -55.000
21546150.000 4550385.000 0.000
21546550.000 4551105.000 -62.500
21545600.000 4550115.000 -20.000
21545475.000 4549577.500 248.750
21545325.000 4550440.000 -28.750
21545250.000 4549915.000 147.500
21545025.000 4550252.500 46.250
21545000.000 4549790.000 90.000
21544325.000 4549847.500 -185.000
21545100.000 4549390.000 162.500
21544750.000 4549615.000 -22.500
21545700.000 4549240.000 350.000
21546425.000 4550032.500 272.500
21545200.000 4548990.000 235.000
21544675.000 4548585.000 232.500
21545600.000 4548785.000 490.000
21545350.000 4548660.000 432.500
21545762.609 4548898.313 505.498
21545695.750 4548828.309 508.217
21546152.078 4549306.195 489.659
21546370.625 4549535.074 480.771
21546486.719 4549647.320 475.137
21546616.375 4549787.188 462.138
21546718.938 4550116.746 470.961
21546744.484 4550215.066 469.898
21546600.000 4550630.000 140.000
21546764.359 4550256.664 467.551
21546850.000 4550785.000 432.500
21546803.406 4550441.742 467.447
21546893.094 4551102.488 400.177
21546893.094 4551102.488 400.177
21546915.594 4551331.672 365.251
21546916.641 4551342.270 363.636
21546955.391 4551736.918 303.497
21545693.969 4548826.352 508.325
21545636.750 4548763.406 511.822
21545582.031 4548703.211 515.166
21545487.516 4548589.523 520.167
21545419.328 4548507.488 523.775
21544950.000 4548500.000 365.000
21545406.359 4548495.195 524.724
21544150.000 4548155.000 20.000
21543800.000 4548390.000 -210.000
21545117.438 4548168.465 528.255
21545032.484 4548028.930 514.818
21545202.625 4548255.242 535.912
21545297.969 4548392.445 532.657
21544919.203 4547889.871 502.046
21544450.000 4547697.500 323.750
21544723.516 4547686.863 484.057
21543950.000 4547305.000 225.000
21543650.000 4547782.500 -123.750
21544350.000 4547252.500 471.250
21544364.547 4547258.465 476.779
21544346.266 4547235.914 476.747
21544225.203 4547088.766 476.616
21543000.000 4546762.500 -297.500
21544192.234 4547007.824 475.162
21543400.000 4547307.500 -162.500
21542650.000 4546805.000 -502.500
21542500.000 4547120.000 -640.000
21542800.000 4546490.000 -365.000
21542150.000 4546630.000 -800.000
21544184.313 4546988.352 474.812
21544230.797 4546946.949 471.465
21544100.000 4546790.000 332.500
21544188.703 4546812.176 468.517
21543325.000 4546175.000 -320.000
21542750.000 4546332.500 -497.500
21543700.000 4546310.000 -92.500
21544153.969 4546700.945 466.084
21543996.781 4546234.773 449.211
21543964.781 4546212.148 451.872
21544006.375 4546241.063 449.414
21544057.703 4546399.426 455.972
21544113.047 4546570.219 463.045
21544116.016 4546579.406 463.426
21543575.000 4545815.000 -410.000
21544017.063 4546156.027 453.089
21543200.000 4545742.500 -790.000
21543100.000 4545990.000 -640.000
21543450.000 4545520.000 -682.500
21543300.000 4545495.000 -940.000
21543625.000 4545285.000 -703.750
21543900.000 4545595.000 30.000
21543800.000 4545050.000 -725.000
21544106.313 4545883.844 461.204
21544219.875 4545560.695 465.158
21544094.891 4545932.543 460.256
21544064.078 4546024.211 459.048
21544300.000 4545120.000 365.000
21544250.000 4545395.000 427.500
21544100.000 4544900.000 298.750
21543650.000 4544645.000 -312.500
21544375.000 4544940.000 375.000
21544525.000 4544580.000 395.000
21544375.000 4544940.000 375.000
21544450.000 4544760.000 385.000
21543700.000 4544270.000 210.000
21544581.594 4544444.184 402.545
21544578.844 4544396.945 400.415
21544228.000 4544068.398 444.001
21544213.391 4544054.711 445.817
21543575.000 4543962.500 307.500
21543500.000 4544240.000 100.000
21543990.266 4543845.773 473.534
21543876.469 4543737.559 488.381
21543859.672 4543713.547 490.202
21543400.000 4543640.000 350.000
21543325.000 4543935.000 92.500
21543833.547 4543688.594 493.606
21543578.703 4543486.070 504.443
21543516.078 4543438.805 505.732
21543363.953 4543353.125 510.939
21543325.000 4543347.500 502.500
21543322.672 4543318.898 511.569
21543312.594 4543316.969 512.181
21543337.375 4543264.219 506.576
21542800.000 4543020.000 70.000
21542950.000 4543605.000 -90.000
21543205.766 4543036.230 500.108
21543235.922 4542985.824 494.270
21543025.000 4542807.500 146.250
21542800.000 4542792.500 -63.750
21543281.203 4542922.414 486.380
21543349.516 4542819.668 468.735
21543379.344 4542763.145 459.936
21543250.000 4542595.000 222.500
21543100.000 4542585.000 82.500
21543451.813 4542603.072 436.422
21543477.297 4542553.363 428.771
21543400.000 4542377.500 228.750
21543497.344 4542517.650 423.072
21543594.266 4542387.213 425.444
21543609.656 4542366.508 425.821
21543700.000 4542170.000 375.000
21542050.000 4542280.000 -1098.750
21543657.813 4542353.492 422.455
21543800.000 4542170.000 375.000
21543701.297 4542155.000 377.004
21543677.031 4542348.299 421.112
21543675.844 4542155.000 365.975
21543796.125 4542155.000 377.004
21543800.000 4542155.000 377.004
21543492.313 4542155.000 170.769
21543257.594 4542155.000 -49.029
21542242.094 4542155.000 -1000.000
21541971.875 4542155.000 -1253.047
21541900.000 4542155.000 -1337.500
21541900.000 4542270.000 -1280.000
21541750.000 4542262.500 -1420.000
21541900.000 4542500.000 -1165.000
21541750.000 4542490.000 -1367.500
21541900.000 4542730.000 -1050.000
21542350.000 4542760.000 -506.250
21541675.000 4542715.000 -1353.750
21541600.000 4542940.000 -1340.000
21541450.000 4542707.500 -1470.000
21541900.000 4542960.000 -935.000
21541575.000 4543190.000 -1245.000
21541800.000 4543205.000 -941.250
21541300.000 4542930.000 -1495.000
21541275.000 4543172.500 -1396.250
21540900.000 4542667.500 -1605.000
21540900.000 4542900.000 -1410.000
[...]
POINT_DATA 1026
COLOR_SCALARS GocadColor 4
0.486275 0.596078 0.827451 1
0.486275 0.596078 0.827451 1
0.486275 0.596078 0.827451 1
0.486275 0.596078 0.827451 1
0.486275 0.596078 0.827451 1
0.486275 0.596078 0.827451 1
0.486275 0.596078 0.827451 1
0.486275 0.596078 0.827451 1
0.486275 0.596078 0.827451 1
0.486275 0.596078 0.827451 1
0.486275 0.596078 0.827451 1
0.486275 0.596078 0.827451 1
0.486275 0.596078 0.827451 1
0.486275 0.596078 0.827451 1
0.486275 0.596078 0.827451 1
0.486275 0.596078 0.827451 1
0.486275 0.596078 0.827451 1
0.486275 0.596078 0.827451 1
0.486275 0.596078 0.827451 1
0.486275 0.596078 0.827451 1
0.486275 0.596078 0.827451 1
0.486275 0.596078 0.827451 1
0.486275 0.596078 0.827451 1
0.486275 0.596078 0.827451 1
0.486275 0.596078 0.827451 1
0.486275 0.596078 0.827451 1
0.486275 0.596078 0.827451 1
0.486275 0.596078 0.827451 1
0.486275 0.596078 0.827451 1
0.486275 0.596078 0.827451 1
0.486275 0.596078 0.827451 1
0.486275 0.596078 0.827451 1
0.486275 0.596078 0.827451 1
0.486275 0.596078 0.827451 1
0.486275 0.596078 0.827451 1
0.486275 0.596078 0.827451 1
0.486275 0.596078 0.827451 1
0.486275 0.596078 0.827451 1
0.486275 0.596078 0.827451 1
0.486275 0.596078 0.827451 1
0.486275 0.596078 0.827451 1
0.486275 0.596078 0.827451 1
0.486275 0.596078 0.827451 1
0.486275 0.596078 0.827451 1
0.486275 0.596078 0.827451 1
0.486275 0.596078 0.827451 1
0.486275 0.596078 0.827451 1
0.486275 0.596078 0.827451 1
0.486275 0.596078 0.827451 1
0.486275 0.596078 0.827451 1
0.486275 0.596078 0.827451 1
0.486275 0.596078 0.827451 1
0.486275 0.596078 0.827451 1
0.486275 0.596078 0.827451 1
0.486275 0.596078 0.827451 1
0.486275 0.596078 0.827451 1
0.486275 0.596078 0.827451 1
0.486275 0.596078 0.827451 1
0.486275 0.596078 0.827451 1
0.486275 0.596078 0.827451 1
0.486275 0.596078 0.827451 1
0.486275 0.596078 0.827451 1
0.486275 0.596078 0.827451 1
0.486275 0.596078 0.827451 1
0.486275 0.596078 0.827451 1
0.486275 0.596078 0.827451 1
0.486275 0.596078 0.827451 1
0.486275 0.596078 0.827451 1
0.486275 0.596078 0.827451 1
0.486275 0.596078 0.827451 1
0.486275 0.596078 0.827451 1
0.486275 0.596078 0.827451 1
0.486275 0.596078 0.827451 1
0.486275 0.596078 0.827451 1
0.486275 0.596078 0.827451 1
0.486275 0.596078 0.827451 1
0.486275 0.596078 0.827451 1
0.486275 0.596078 0.827451 1
0.486275 0.596078 0.827451 1
0.486275 0.596078 0.827451 1
0.486275 0.596078 0.827451 1
0.486275 0.596078 0.827451 1
0.486275 0.596078 0.827451 1
0.486275 0.596078 0.827451 1
0.486275 0.596078 0.827451 1
0.486275 0.596078 0.827451 1
0.486275 0.596078 0.827451 1
0.486275 0.596078 0.827451 1
0.486275 0.596078 0.827451 1
0.486275 0.596078 0.827451 1
0.486275 0.596078 0.827451 1
0.486275 0.596078 0.827451 1
0.486275 0.596078 0.827451 1
0.486275 0.596078 0.827451 1
0.486275 0.596078 0.827451 1
0.486275 0.596078 0.827451 1
0.486275 0.596078 0.827451 1
0.486275 0.596078 0.827451 1
0.486275 0.596078 0.827451 1
0.486275 0.596078 0.827451 1
0.486275 0.596078 0.827451 1
0.486275 0.596078 0.827451 1
0.486275 0.596078 0.827451 1
0.486275 0.596078 0.827451 1
0.486275 0.596078 0.827451 1
0.486275 0.596078 0.827451 1
0.486275 0.596078 0.827451 1
0.486275 0.596078 0.827451 1
0.486275 0.596078 0.827451 1
0.486275 0.596078 0.827451 1
0.486275 0.596078 0.827451 1
0.486275 0.596078 0.827451 1
0.486275 0.596078 0.827451 1
0.486275 0.596078 0.827451 1
0.486275 0.596078 0.827451 1
0.486275 0.596078 0.827451 1
0.486275 0.596078 0.827451 1
0.486275 0.596078 0.827451 1
0.486275 0.596078 0.827451 1
0.486275 0.596078 0.827451 1
0.486275 0.596078 0.827451 1
0.486275 0.596078 0.827451 1
0.486275 0.596078 0.827451 1
0.486275 0.596078 0.827451 1
0.486275 0.596078 0.827451 1
0.486275 0.596078 0.827451 1
0.486275 0.596078 0.827451 1
0.486275 0.596078 0.827451 1
0.486275 0.596078 0.827451 1
0.486275 0.596078 0.827451 1
0.486275 0.596078 0.827451 1
0.486275 0.596078 0.827451 1
0.486275 0.596078 0.827451 1
0.486275 0.596078 0.827451 1
0.486275 0.596078 0.827451 1
0.486275 0.596078 0.827451 1
0.486275 0.596078 0.827451 1
0.486275 0.596078 0.827451 1
0.486275 0.596078 0.827451 1
0.486275 0.596078 0.827451 1
0.486275 0.596078 0.827451 1
0.486275 0.596078 0.827451 1
0.486275 0.596078 0.827451 1
0.486275 0.596078 0.827451 1
0.486275 0.596078 0.827451 1
0.486275 0.596078 0.827451 1
0.486275 0.596078 0.827451 1
0.486275 0.596078 0.827451 1
0.486275 0.596078 0.827451 1
0.486275 0.596078 0.827451 1
0.486275 0.596078 0.827451 1
0.486275 0.596078 0.827451 1
0.486275 0.596078 0.827451 1
0.486275 0.596078 0.827451 1
0.486275 0.596078 0.827451 1
0.486275 0.596078 0.827451 1
0.486275 0.596078 0.827451 1
0.486275 0.596078 0.827451 1
0.486275 0.596078 0.827451 1
0.486275 0.596078 0.827451 1
0.486275 0.596078 0.827451 1
0.486275 0.596078 0.827451 1
0.486275 0.596078 0.827451 1
0.486275 0.596078 0.827451 1
0.486275 0.596078 0.827451 1
0.486275 0.596078 0.827451 1
0.486275 0.596078 0.827451 1
0.486275 0.596078 0.827451 1
0.486275 0.596078 0.827451 1
0.486275 0.596078 0.827451 1
0.486275 0.596078 0.827451 1
0.486275 0.596078 0.827451 1
0.486275 0.596078 0.827451 1
0.486275 0.596078 0.827451 1
0.486275 0.596078 0.827451 1
0.486275 0.596078 0.827451 1
0.486275 0.596078 0.827451 1
0.486275 0.596078 0.827451 1
0.486275 0.596078 0.827451 1
0.486275 0.596078 0.827451 1
0.486275 0.596078 0.827451 1
0.486275 0.596078 0.827451 1
0.486275 0.596078 0.827451 1
0.486275 0.596078 0.827451 1
0.486275 0.596078 0.827451 1
0.486275 0.596078 0.827451 1
0.486275 0.596078 0.827451 1
0.486275 0.596078 0.827451 1
0.486275 0.596078 0.827451 1
0.486275 0.596078 0.827451 1
0.486275 0.596078 0.827451 1
0.486275 0.596078 0.827451 1
0.486275 0.596078 0.827451 1
0.486275 0.596078 0.827451 1
0.486275 0.596078 0.827451 1
0.486275 0.596078 0.827451 1
0.486275 0.596078 0.827451 1
0.486275 0.596078 0.827451 1
0.486275 0.596078 0.827451 1
0.486275 0.596078 0.827451 1
0.486275 0.596078 0.827451 1
0.486275 0.596078 0.827451 1
0.486275 0.596078 0.827451 1
0.486275 0.596078 0.827451 1
0.486275 0.596078 0.827451 1
0.486275 0.596078 0.827451 1
0.486275 0.596078 0.827451 1
0.486275 0.596078 0.827451 1
0.486275 0.596078 0.827451 1
0.486275 0.596078 0.827451 1
0.486275 0.596078 0.827451 1
0.486275 0.596078 0.827451 1
0.486275 0.596078 0.827451 1
0.486275 0.596078 0.827451 1
0.486275 0.596078 0.827451 1
0.486275 0.596078 0.827451 1
0.486275 0.596078 0.827451 1
0.486275 0.596078 0.827451 1
0.486275 0.596078 0.827451 1
0.486275 0.596078 0.827451 1
0.486275 0.596078 0.827451 1
0.486275 0.596078 0.827451 1
0.486275 0.596078 0.827451 1
0.486275 0.596078 0.827451 1
0.486275 0.596078 0.827451 1
0.486275 0.596078 0.827451 1
0.486275 0.596078 0.827451 1
0.486275 0.596078 0.827451 1
0.486275 0.596078 0.827451 1
0.486275 0.596078 0.827451 1
0.486275 0.596078 0.827451 1
0.486275 0.596078 0.827451 1
0.486275 0.596078 0.827451 1
0.486275 0.596078 0.827451 1
0.486275 0.596078 0.827451 1
0.486275 0.596078 0.827451 1
0.486275 0.596078 0.827451 1
0.486275 0.596078 0.827451 1
0.486275 0.596078 0.827451 1
0.486275 0.596078 0.827451 1
0.486275 0.596078 0.827451 1
0.486275 0.596078 0.827451 1
0.486275 0.596078 0.827451 1
0.486275 0.596078 0.827451 1
0.486275 0.596078 0.827451 1
0.486275 0.596078 0.827451 1
0.486275 0.596078 0.827451 1
0.486275 0.596078 0.827451 1
0.486275 0.596078 0.827451 1
0.486275 0.596078 0.827451 1
0.486275 0.596078 0.827451 1
0.486275 0.596078 0.827451 1
0.486275 0.596078 0.827451 1
0.486275 0.596078 0.827451 1
0.486275 0.596078 0.827451 1
0.486275 0.596078 0.827451 1
0.486275 0.596078 0.827451 1
0.486275 0.596078 0.827451 1
0.486275 0.596078 0.827451 1
0.486275 0.596078 0.827451 1
0.486275 0.596078 0.827451 1
0.486275 0.596078 0.827451 1
0.486275 0.596078 0.827451 1
0.486275 0.596078 0.827451 1
0.486275 0.596078 0.827451 1
0.486275 0.596078 0.827451 1
0.486275 0.596078 0.827451 1
0.486275 0.596078 0.827451 1
0.486275 0.596078 0.827451 1
0.486275 0.596078 0.827451 1
0.486275 0.596078 0.827451 1
0.486275 0.596078 0.827451 1
0.486275 0.596078 0.827451 1
0.486275 0.596078 0.827451 1
0.486275 0.596078 0.827451 1
0.486275 0.596078 0.827451 1
0.486275 0.596078 0.827451 1
0.486275 0.596078 0.827451 1
0.486275 0.596078 0.827451 1
0.486275 0.596078 0.827451 1
0.486275 0.596078 0.827451 1
0.486275 0.596078 0.827451 1
0.486275 0.596078 0.827451 1
0.486275 0.596078 0.827451 1
0.486275 0.596078 0.827451 1
0.486275 0.596078 0.827451 1
0.486275 0.596078 0.827451 1
0.486275 0.596078 0.827451 1
0.486275 0.596078 0.827451 1
0.486275 0.596078 0.827451 1
0.486275 0.596078 0.827451 1
0.486275 0.596078 0.827451 1
0.486275 0.596078 0.827451 1
0.486275 0.596078 0.827451 1
0.486275 0.596078 0.827451 1
0.486275 0.596078 0.827451 1
0.486275 0.596078 0.827451 1
0.486275 0.596078 0.827451 1
0.486275 0.596078 0.827451 1
0.486275 0.596078 0.827451 1
0.486275 0.596078 0.827451 1
0.486275 0.596078 0.827451 1
0.486275 0.596078 0.827451 1
0.486275 0.596078 0.827451 1
0.486275 0.596078 0.827451 1
0.486275 0.596078 0.827451 1
0.486275 0.596078 0.827451 1
0.486275 0.596078 0.827451 1
0.486275 0.596078 0.827451 1
0.486275 0.596078 0.827451 1
0.486275 0.596078 0.827451 1
0.486275 0.596078 0.827451 1
0.486275 0.596078 0.827451 1
0.486275 0.596078 0.827451 1
0.486275 0.596078 0.827451 1
0.486275 0.596078 0.827451 1
0.486275 0.596078 0.827451 1
0.486275 0.596078 0.827451 1
0.486275 0.596078 0.827451 1
0.486275 0.596078 0.827451 1
0.486275 0.596078 0.827451 1
0.486275 0.596078 0.827451 1
0.486275 0.596078 0.827451 1
0.486275 0.596078 0.827451 1
0.486275 0.596078 0.827451 1
0.486275 0.596078 0.827451 1
0.486275 0.596078 0.827451 1
0.486275 0.596078 0.827451 1
0.486275 0.596078 0.827451 1
0.486275 0.596078 0.827451 1
0.486275 0.596078 0.827451 1
0.486275 0.596078 0.827451 1
0.486275 0.596078 0.827451 1
0.486275 0.596078 0.827451 1
0.486275 0.596078 0.827451 1
0.486275 0.596078 0.827451 1
0.486275 0.596078 0.827451 1
0.486275 0.596078 0.827451 1
0.486275 0.596078 0.827451 1
0.486275 0.596078 0.827451 1
0.486275 0.596078 0.827451 1
0.486275 0.596078 0.827451 1
0.486275 0.596078 0.827451 1
0.486275 0.596078 0.827451 1
0.486275 0.596078 0.827451 1
0.486275 0.596078 0.827451 1
0.486275 0.596078 0.827451 1
0.486275 0.596078 0.827451 1
0.486275 0.596078 0.827451 1
0.486275 0.596078 0.827451 1
0.486275 0.596078 0.827451 1
0.486275 0.596078 0.827451 1
0.486275 0.596078 0.827451 1
0.486275 0.596078 0.827451 1
0.486275 0.596078 0.827451 1
0.486275 0.596078 0.827451 1
0.486275 0.596078 0.827451 1
0.486275 0.596078 0.827451 1
0.486275 0.596078 0.827451 1
0.486275 0.596078 0.827451 1
0.486275 0.596078 0.827451 1
0.486275 0.596078 0.827451 1
0.486275 0.596078 0.827451 1
0.486275 0.596078 0.827451 1
0.486275 0.596078 0.827451 1
0.486275 0.596078 0.827451 1
0.486275 0.596078 0.827451 1
0.486275 0.596078 0.827451 1
0.486275 0.596078 0.827451 1
0.486275 0.596078 0.827451 1
0.486275 0.596078 0.827451 1
0.486275 0.596078 0.827451 1
0.486275 0.596078 0.827451 1
0.486275 0.596078 0.827451 1
0.486275 0.596078 0.827451 1
0.486275 0.596078 0.827451 1
0.486275 0.596078 0.827451 1
0.486275 0.596078 0.827451 1
0.486275 0.596078 0.827451 1
0.486275 0.596078 0.827451 1
0.486275 0.596078 0.827451 1
0.486275 0.596078 0.827451 1
0.486275 0.596078 0.827451 1
0.486275 0.596078 0.827451 1
0.486275 0.596078 0.827451 1
0.486275 0.596078 0.827451 1
0.486275 0.596078 0.827451 1
0.486275 0.596078 0.827451 1
0.486275 0.596078 0.827451 1
0.486275 0.596078 0.827451 1
0.486275 0.596078 0.827451 1
0.486275 0.596078 0.827451 1
0.486275 0.596078 0.827451 1
0.486275 0.596078 0.827451 1
0.486275 0.596078 0.827451 1
0.486275 0.596078 0.827451 1
0.486275 0.596078 0.827451 1
0.486275 0.596078 0.827451 1
0.486275 0.596078 0.827451 1
0.486275 0.596078 0.827451 1
0.486275 0.596078 0.827451 1
0.486275 0.596078 0.827451 1
0.486275 0.596078 0.827451 1
0.486275 0.596078 0.827451 1
0.486275 0.596078 0.827451 1
0.486275 0.596078 0.827451 1
0.486275 0.596078 0.827451 1
0.486275 0.596078 0.827451 1
0.486275 0.596078 0.827451 1
0.486275 0.596078 0.827451 1
0.486275 0.596078 0.827451 1
0.486275 0.596078 0.827451 1
0.486275 0.596078 0.827451 1
0.486275 0.596078 0.827451 1
0.486275 0.596078 0.827451 1
0.486275 0.596078 0.827451 1
0.486275 0.596078 0.827451 1
0.486275 0.596078 0.827451 1
0.486275 0.596078 0.827451 1
0.486275 0.596078 0.827451 1
0.486275 0.596078 0.827451 1
0.486275 0.596078 0.827451 1
0.486275 0.596078 0.827451 1
0.486275 0.596078 0.827451 1
0.486275 0.596078 0.827451 1
0.486275 0.596078 0.827451 1
0.486275 0.596078 0.827451 1
0.486275 0.596078 0.827451 1
0.486275 0.596078 0.827451 1
0.486275 0.596078 0.827451 1
0.486275 0.596078 0.827451 1
0.486275 0.596078 0.827451 1
0.486275 0.596078 0.827451 1
0.486275 0.596078 0.827451 1
0.486275 0.596078 0.827451 1
0.486275 0.596078 0.827451 1
0.486275 0.596078 0.827451 1
0.486275 0.596078 0.827451 1
0.486275 0.596078 0.827451 1
0.486275 0.596078 0.827451 1
0.486275 0.596078 0.827451 1
0.486275 0.596078 0.827451 1
0.486275 0.596078 0.827451 1
0.486275 0.596078 0.827451 1
0.486275 0.596078 0.827451 1
0.486275 0.596078 0.827451 1
0.486275 0.596078 0.827451 1
0.486275 0.596078 0.827451 1
0.486275 0.596078 0.827451 1
0.486275 0.596078 0.827451 1
0.486275 0.596078 0.827451 1
0.486275 0.596078 0.827451 1
0.486275 0.596078 0.827451 1
0.486275 0.596078 0.827451 1
0.486275 0.596078 0.827451 1
0.486275 0.596078 0.827451 1
0.486275 0.596078 0.827451 1
0.486275 0.596078 0.827451 1
0.486275 0.596078 0.827451 1
0.486275 0.596078 0.827451 1
0.486275 0.596078 0.827451 1
0.486275 0.596078 0.827451 1
0.486275 0.596078 0.827451 1
0.486275 0.596078 0.827451 1
0.486275 0.596078 0.827451 1
0.486275 0.596078 0.827451 1
0.486275 0.596078 0.827451 1
0.486275 0.596078 0.827451 1
0.486275 0.596078 0.827451 1
0.486275 0.596078 0.827451 1
0.486275 0.596078 0.827451 1
0.486275 0.596078 0.827451 1
0.486275 0.596078 0.827451 1
0.486275 0.596078 0.827451 1
0.486275 0.596078 0.827451 1
0.486275 0.596078 0.827451 1
0.486275 0.596078 0.827451 1
0.486275 0.596078 0.827451 1
0.486275 0.596078 0.827451 1
0.486275 0.596078 0.827451 1
0.486275 0.596078 0.827451 1
0.486275 0.596078 0.827451 1
0.486275 0.596078 0.827451 1
0.486275 0.596078 0.827451 1
0.486275 0.596078 0.827451 1
0.486275 0.596078 0.827451 1
0.486275 0.596078 0.827451 1
0.486275 0.596078 0.827451 1
0.486275 0.596078 0.827451 1
0.486275 0.596078 0.827451 1
0.486275 0.596078 0.827451 1
0.486275 0.596078 0.827451 1
0.486275 0.596078 0.827451 1
0.486275 0.596078 0.827451 1
0.486275 0.596078 0.827451 1
0.486275 0.596078 0.827451 1
0.486275 0.596078 0.827451 1
0.486275 0.596078 0.827451 1
0.486275 0.596078 0.827451 1
0.486275 0.596078 0.827451 1
0.486275 0.596078 0.827451 1
0.486275 0.596078 0.827451 1
0.486275 0.596078 0.827451 1
0.486275 0.596078 0.827451 1
0.486275 0.596078 0.827451 1
0.486275 0.596078 0.827451 1
0.486275 0.596078 0.827451 1
0.486275 0.596078 0.827451 1
0.486275 0.596078 0.827451 1
0.486275 0.596078 0.827451 1
0.486275 0.596078 0.827451 1
0.486275 0.596078 0.827451 1
0.486275 0.596078 0.827451 1
0.486275 0.596078 0.827451 1
0.486275 0.596078 0.827451 1
0.486275 0.596078 0.827451 1
0.486275 0.596078 0.827451 1
0.486275 0.596078 0.827451 1
0.486275 0.596078 0.827451 1
0.486275 0.596078 0.827451 1
0.486275 0.596078 0.827451 1
0.486275 0.596078 0.827451 1
0.486275 0.596078 0.827451 1
0.486275 0.596078 0.827451 1
0.486275 0.596078 0.827451 1
0.486275 0.596078 0.827451 1
0.486275 0.596078 0.827451 1
0.486275 0.596078 0.827451 1
0.486275 0.596078 0.827451 1
0.486275 0.596078 0.827451 1
0.486275 0.596078 0.827451 1
0.486275 0.596078 0.827451 1
0.486275 0.596078 0.827451 1
0.486275 0.596078 0.827451 1
0.486275 0.596078 0.827451 1
0.486275 0.596078 0.827451 1
0.486275 0.596078 0.827451 1
0.486275 0.596078 0.827451 1
0.486275 0.596078 0.827451 1
0.486275 0.596078 0.827451 1
0.486275 0.596078 0.827451 1
0.486275 0.596078 0.827451 1
0.486275 0.596078 0.827451 1
0.486275 0.596078 0.827451 1
0.486275 0.596078 0.827451 1
0.486275 0.596078 0.827451 1
0.486275 0.596078 0.827451 1
0.486275 0.596078 0.827451 1
0.486275 0.596078 0.827451 1
0.486275 0.596078 0.827451 1
0.486275 0.596078 0.827451 1
0.486275 0.596078 0.827451 1
0.486275 0.596078 0.827451 1
0.486275 0.596078 0.827451 1
0.486275 0.596078 0.827451 1
0.486275 0.596078 0.827451 1
0.486275 0.596078 0.827451 1
0.486275 0.596078 0.827451 1
0.486275 0.596078 0.827451 1
0.486275 0.596078 0.827451 1
0.486275 0.596078 0.827451 1
0.486275 0.596078 0.827451 1
0.486275 0.596078 0.827451 1
0.486275 0.596078 0.827451 1
0.486275 0.596078 0.827451 1
0.486275 0.596078 0.827451 1
0.486275 0.596078 0.827451 1
0.486275 0.596078 0.827451 1
0.486275 0.596078 0.827451 1
0.486275 0.596078 0.827451 1
0.486275 0.596078 0.827451 1
0.486275 0.596078 0.827451 1
0.486275 0.596078 0.827451 1
0.486275 0.596078 0.827451 1
0.486275 0.596078 0.827451 1
0.486275 0.596078 0.827451 1
0.486275 0.596078 0.827451 1
0.486275 0.596078 0.827451 1
0.486275 0.596078 0.827451 1
0.486275 0.596078 0.827451 1
0.486275 0.596078 0.827451 1
0.486275 0.596078 0.827451 1
0.486275 0.596078 0.827451 1
0.486275 0.596078 0.827451 1
0.486275 0.596078 0.827451 1
0.486275 0.596078 0.827451 1
0.486275 0.596078 0.827451 1
0.486275 0.596078 0.827451 1
0.486275 0.596078 0.827451 1
0.486275 0.596078 0.827451 1
0.486275 0.596078 0.827451 1
0.486275 0.596078 0.827451 1
0.486275 0.596078 0.827451 1
0.486275 0.596078 0.827451 1
0.486275 0.596078 0.827451 1
0.486275 0.596078 0.827451 1
0.486275 0.596078 0.827451 1
0.486275 0.596078 0.827451 1
0.486275 0.596078 0.827451 1
0.486275 0.596078 0.827451 1
0.486275 0.596078 0.827451 1
0.486275 0.596078 0.827451 1
0.486275 0.596078 0.827451 1
0.486275 0.596078 0.827451 1
0.486275 0.596078 0.827451 1
0.486275 0.596078 0.827451 1
0.486275 0.596078 0.827451 1
0.486275 0.596078 0.827451 1
0.486275 0.596078 0.827451 1
0.486275 0.596078 0.827451 1
0.486275 0.596078 0.827451 1
0.486275 0.596078 0.827451 1
0.486275 0.596078 0.827451 1
0.486275 0.596078 0.827451 1
0.486275 0.596078 0.827451 1
0.486275 0.596078 0.827451 1
0.486275 0.596078 0.827451 1
0.486275 0.596078 0.827451 1
0.486275 0.596078 0.827451 1
0.486275 0.596078 0.827451 1
0.486275 0.596078 0.827451 1
0.486275 0.596078 0.827451 1
0.486275 0.596078 0.827451 1
0.486275 0.596078 0.827451 1
0.486275 0.596078 0.827451 1
0.486275 0.596078 0.827451 1
0.486275 0.596078 0.827451 1
0.486275 0.596078 0.827451 1
0.486275 0.596078 0.827451 1
0.486275 0.596078 0.827451 1
0.486275 0.596078 0.827451 1
0.486275 0.596078 0.827451 1
0.486275 0.596078 0.827451 1
0.486275 0.596078 0.827451 1
0.486275 0.596078 0.827451 1
0.486275 0.596078 0.827451 1
0.486275 0.596078 0.827451 1
0.486275 0.596078 0.827451 1
0.486275 0.596078 0.827451 1
0.486275 0.596078 0.827451 1
0.486275 0.596078 0.827451 1
0.486275 0.596078 0.827451 1
0.486275 0.596078 0.827451 1
0.486275 0.596078 0.827451 1
0.486275 0.596078 0.827451 1
0.486275 0.596078 0.827451 1
0.486275 0.596078 0.827451 1
0.486275 0.596078 0.827451 1
0.486275 0.596078 0.827451 1
0.486275 0.596078 0.827451 1
0.486275 0.596078 0.827451 1
0.486275 0.596078 0.827451 1
0.486275 0.596078 0.827451 1
0.486275 0.596078 0.827451 1
0.486275 0.596078 0.827451 1
0.486275 0.596078 0.827451 1
0.486275 0.596078 0.827451 1
0.486275 0.596078 0.827451 1
0.486275 0.596078 0.827451 1
0.486275 0.596078 0.827451 1
0.486275 0.596078 0.827451 1
0.486275 0.596078 0.827451 1
0.486275 0.596078 0.827451 1
0.486275 0.596078 0.827451 1
0.486275 0.596078 0.827451 1
0.486275 0.596078 0.827451 1
0.486275 0.596078 0.827451 1
0.486275 0.596078 0.827451 1
0.486275 0.596078 0.827451 1
0.486275 0.596078 0.827451 1
0.486275 0.596078 0.827451 1
0.486275 0.596078 0.827451 1
0.486275 0.596078 0.827451 1
0.486275 0.596078 0.827451 1
0.486275 0.596078 0.827451 1
0.486275 0.596078 0.827451 1
0.486275 0.596078 0.827451 1
0.486275 0.596078 0.827451 1
0.486275 0.596078 0.827451 1
0.486275 0.596078 0.827451 1
0.486275 0.596078 0.827451 1
0.486275 0.596078 0.827451 1
0.486275 0.596078 0.827451 1
0.486275 0.596078 0.827451 1
0.486275 0.596078 0.827451 1
0.486275 0.596078 0.827451 1
0.486275 0.596078 0.827451 1
0.486275 0.596078 0.827451 1