# vtk DataFile Version 3.0
Gocad TSurf to VTK
ASCII
DATASET POLYDATA
POINTS 310 float
21541550.000 4547255.000 -2633.750
21541425.000 4547202.500 -2716.250
21541550.000 4547080.000 -2587.500
21541175.000 4547110.000 -2883.750
21542050.000 4547125.000 -2181.250
21541300.000 4547320.000 -2845.000
21541300.000 4547320.000 -2860.000
21541025.000 4547047.500 -2995.000
21541050.000 4546900.000 -2922.500
21540750.000 4546775.000 -3145.000
21541075.000 4546395.000 -2825.000
21540475.000 4546502.500 -3295.000
21542000.000 4546370.000 -2213.750
21541900.000 4546140.000 -2300.000
21542700.000 4546460.000 -1730.000
21540050.000 4545677.500 -3427.500
21540550.000 4546212.500 -3142.500
21539800.000 4545410.000 -3570.000
21540900.000 4545565.000 -3355.000
21539900.000 4545615.000 -3538.750
21540000.000 4545820.000 -3507.500
21540100.000 4546025.000 -3476.250
21540200.000 4546230.000 -3445.000
21539900.000 4545380.000 -3811.250
21541975.000 4545825.000 -2930.000
21542500.000 4546060.000 -2272.500
21540200.000 4545105.000 -4660.000
21540800.000 4545005.000 -4220.000
21540100.000 4545320.000 -4293.750
21539725.000 4545245.000 -4545.000
21539700.000 4545190.000 -4870.000
21539750.000 4545300.000 -4220.000
21539775.000 4545355.000 -3895.000
21539825.000 4545030.000 -4911.250
21540200.000 4544735.000 -4910.000
21539717.672 4545015.141 -5000.000
21539616.125 4545104.031 -5000.000
21539744.500 4544991.664 -5000.000
21539752.609 4544984.563 -5000.000
21540088.766 4544718.820 -5000.000
21540102.500 4544707.625 -5000.000
21540068.297 4544680.469 -5000.000
21540025.000 4544320.000 -4920.000
21539921.234 4544305.473 -5000.000
21541225.000 4544485.000 -3766.250
21540750.000 4544225.000 -3962.500
21540175.000 4543077.500 -4406.250
21541050.000 4544260.000 -3627.500
21541350.000 4544310.000 -3200.000
21540700.000 4543810.000 -3350.000
21540325.000 4543525.000 -3796.250
21541350.000 4543667.500 -2600.000
21541550.000 4544140.000 -2611.250
21541450.000 4543182.500 -2810.000
21541900.000 4543205.000 -2693.750
21540975.000 4542677.500 -3351.250
21541425.000 4542242.500 -3680.000
21540200.000 4542860.000 -4535.000
21540550.000 4542420.000 -4282.500
21540100.000 4542850.000 -4590.000
21539646.250 4542911.582 -5000.000
21540050.000 4542620.000 -4476.250
21539875.000 4542605.000 -4526.250
21540200.000 4542627.500 -4412.500
21540150.000 4542390.000 -4317.500
21540150.000 4542160.000 -4191.250
21540170.828 4542155.000 -4186.771
21540152.156 4542155.000 -4184.812
21540760.797 4542155.000 -4130.426
21540836.922 4542155.000 -4000.000
21540918.813 4542155.000 -3859.704
21541250.000 4542155.000 -3796.667
21541330.641 4542155.000 -3663.058
21541416.156 4542155.000 -3603.990
21541567.016 4542155.000 -3068.073
21541800.000 4542730.000 -2946.250
21541589.641 4542155.000 -2987.739
21542400.000 4542535.000 -2900.000
21542750.000 4542330.000 -2820.000
21542625.000 4543262.500 -2062.500
21542350.000 4543505.000 -1965.000
21542850.000 4542790.000 -2380.000
21542950.000 4543307.500 -1993.750
21543600.000 4542615.000 -1797.500
21542650.000 4543545.000 -1917.500
21542525.000 4543807.500 -1796.250
21543100.000 4544170.000 -1495.000
21542075.000 4543747.500 -1867.500
21542375.000 4544260.000 -1996.250
21541950.000 4543480.000 -2265.000
21541925.000 4544200.000 -2067.500
21542000.000 4544395.000 -2427.500
21542300.000 4544830.000 -2960.000
21542175.000 4544620.000 -2662.500
21542150.000 4545275.000 -3050.000
21541850.000 4545467.500 -3331.250
21542450.000 4545090.000 -2918.750
21542300.000 4545300.000 -2992.500
21542600.000 4544880.000 -2845.000
21542725.000 4545155.000 -2695.000
21542550.000 4544677.500 -2552.500
21542500.000 4544475.000 -2260.000
21542925.000 4544737.500 -2522.500
21542750.000 4544515.000 -2240.000
21543100.000 4544960.000 -2805.000
21543625.000 4544837.500 -2278.750
21543450.000 4544615.000 -2017.500
21543600.000 4545020.000 -2665.000
21543800.000 4545060.000 -2540.000
21543100.000 4545215.000 -2665.000
21543475.000 4545260.000 -2560.000
21542850.000 4545430.000 -2545.000
21543100.000 4545470.000 -2525.000
21542150.000 4545510.000 -3066.250
21543225.000 4545740.000 -2350.000
21543050.000 4546260.000 -1905.000
21543800.000 4546150.000 -1895.000
21543500.000 4546430.000 -1655.000
21543600.000 4546990.000 -1263.750
21543200.000 4547025.000 -1465.000
21543600.000 4547370.000 -1331.250
21542750.000 4546855.000 -1715.000
21542825.000 4547442.500 -1748.750
21542400.000 4546910.000 -1898.750
21542450.000 4547300.000 -1940.000
21542750.000 4547780.000 -1910.000
21542900.000 4548020.000 -1895.000
21543450.000 4547870.000 -1527.500
21544500.000 4548720.000 -1045.000
21544375.000 4548467.500 -1073.750
21544250.000 4548215.000 -1102.500
21544500.000 4548525.000 -1023.750
21544500.000 4548320.000 -1002.500
21544500.000 4548730.000 -1045.000
21544700.000 4548602.500 -951.250
21545000.000 4548940.000 -755.000
21545075.000 4548760.000 -733.750
21545300.000 4548220.000 -670.000
21545800.000 4549270.000 -615.000
21545850.000 4549080.000 -568.750
21545500.000 4548725.000 -592.500
21546400.000 4549095.000 -425.000
21546900.000 4549750.000 -335.000
21546925.000 4549542.500 -310.000
21546975.000 4549127.500 -260.000
21547400.000 4549730.000 -212.500
21548600.000 4550470.000 155.000
21548675.000 4550270.000 155.000
21547900.000 4549710.000 -90.000
21548750.000 4550070.000 155.000
21548825.000 4549870.000 155.000
21548900.000 4549670.000 155.000
21547000.000 4548920.000 -235.000
21548500.000 4549285.000 95.000
21547075.000 4548722.500 -197.500
21549100.000 4549507.500 161.250
21549300.000 4549345.000 167.500
21547700.000 4548515.000 -25.000
21549500.000 4549182.500 173.750
21549700.000 4549020.000 180.000
21547225.000 4548327.500 -122.500
21548825.000 4548440.000 222.500
21546750.000 4547415.000 132.500
21546300.000 4547760.000 -235.000
21547950.000 4547860.000 265.000
21547212.234 4547370.969 300.834
21547058.547 4547286.832 298.644
21546985.344 4547246.754 297.600
21546475.000 4547057.500 241.250
21546889.516 4547194.285 296.235
21546250.000 4547230.000 57.500
21546225.000 4546965.000 203.750
21545750.000 4547045.000 -55.000
21545300.000 4547597.500 -512.500
21546205.844 4546761.871 315.855
21546161.000 4546729.895 314.907
21546284.500 4546809.844 316.586
21546629.016 4547004.797 318.044
21544925.000 4546102.500 -821.250
21546155.828 4546679.297 309.417
21545050.000 4546885.000 -815.000
21544650.000 4546755.000 -967.500
21544500.000 4547130.000 -765.000
21544700.000 4547780.000 -835.000
21543900.000 4546695.000 -1215.000
21544675.000 4546062.500 -1376.250
21543700.000 4547030.000 -1212.500
21544050.000 4545630.000 -1945.000
21543600.000 4545560.000 -2310.000
21544425.000 4545427.500 -1788.750
21544275.000 4544917.500 -1580.000
21545050.000 4545825.000 -472.500
21545931.563 4546318.203 281.600
21545754.609 4546033.254 259.649
21545941.969 4546334.949 282.890
21545754.375 4546032.848 259.634
21545753.641 4546031.539 259.640
21545725.438 4545979.383 260.826
21545596.859 4545741.668 266.230
21545525.000 4545627.500 256.250
21545300.000 4545270.000 225.000
21545025.000 4545037.500 85.000
21544225.000 4544532.500 -750.000
21545425.000 4545100.000 217.500
21545550.000 4544930.000 210.000
21545675.000 4544760.000 202.500
21544475.000 4544572.500 -195.000
21545800.000 4544590.000 195.000
21544275.000 4544035.000 -366.250
21544200.000 4544340.000 -335.000
21545725.000 4544237.500 93.750
21545500.000 4543180.000 -210.000
21546550.000 4544287.500 247.500
21546700.000 4543950.000 167.500
21547300.000 4543985.000 300.000
21548050.000 4543682.500 352.500
21548250.000 4543137.500 188.750
21546100.000 4542552.500 -478.750
21548800.000 4543380.000 405.000
21549150.000 4543190.000 387.500
21549500.000 4543000.000 370.000
21549550.000 4542792.500 286.250
21549850.000 4542810.000 352.500
21550200.000 4542620.000 335.000
21545600.000 4542300.000 -685.000
21545922.219 4542155.000 -786.270
21545825.000 4542535.000 -521.250
21545550.000 4542740.000 -447.500
21545575.000 4542520.000 -566.250
21545350.000 4542505.000 -621.250
21545100.000 4542710.000 -557.500
21544850.000 4542915.000 -493.750
21544900.000 4542250.000 -960.000
21544700.000 4542685.000 -710.000
21545111.109 4542155.000 -911.181
21544869.359 4542155.000 -986.048
21545554.688 4542155.000 -746.738
21545841.672 4542155.000 -787.996
21544851.703 4542155.000 -1000.000
21544300.000 4542210.000 -1435.000
21544401.859 4542155.000 -1355.556
21544650.000 4542457.500 -950.000
21544200.000 4542427.500 -1306.250
21543950.000 4542412.500 -1616.250
21544400.000 4542665.000 -940.000
21544000.000 4542862.500 -1048.750
21543775.000 4543367.500 -986.250
21544150.000 4543705.000 -557.500
21543300.000 4543897.500 -1351.250
21542655.297 4542155.000 -2730.853
21543550.813 4542155.000 -1765.240
21544176.000 4542155.000 -1484.237
21544250.000 4542155.000 -1442.045
21544309.172 4542155.000 -1428.813
21541947.438 4542155.000 -2683.814
21541897.047 4542155.000 -2772.173
21543650.000 4543655.000 -1052.500
21543525.000 4543942.500 -1118.750
21543400.000 4544405.000 -1620.000
21543625.000 4544450.000 -1387.500
21543225.000 4544382.500 -1787.500
21543100.000 4544565.000 -2150.000
21543700.000 4544640.000 -1745.000
21543850.000 4544670.000 -1590.000
21544050.000 4544700.000 -1325.000
21544075.000 4544890.000 -1792.500
21543925.000 4544495.000 -990.000
21543800.000 4544290.000 -655.000
21543825.000 4543987.500 -721.250
21543975.000 4543997.500 -606.250
21543850.000 4543685.000 -787.500
21544500.000 4543425.000 -406.250
21544500.000 4543120.000 -460.000
21548633.688 4542155.000 -379.632
21548968.016 4542155.000 -329.492
21549750.000 4542225.000 -140.000
21549403.156 4542155.000 -264.234
21550275.000 4542230.000 45.000
21549810.969 4542155.000 -175.677
21551000.000 4542235.000 355.000
21550289.422 4542155.000 -10.769
21550941.406 4542155.000 264.299
21551166.234 4542155.000 359.156
21549676.906 4542155.000 -224.177
21549585.063 4542155.000 -236.954
21544250.000 4547420.000 -962.500
21543900.000 4547490.000 -1177.500
21543725.000 4547795.000 -1343.750
21544125.000 4547970.000 -1131.250
21543425.000 4547675.000 -1497.500
21544500.000 4548122.500 -981.250
21546075.000 4548322.500 -381.250
21546825.000 4548630.000 -235.000
21546650.000 4548340.000 -235.000
21540138.797 4542155.000 -4191.660
21539916.391 4542155.000 -4256.583
21539645.406 4542155.000 -4335.689
21539342.984 4542155.000 -4621.570
21539243.406 4542155.000 -4737.061
21539163.000 4542301.346 -5000.000
21539209.688 4542348.051 -5000.000
21538989.578 4542155.000 -5000.000
21539239.219 4542374.309 -5000.000
21539712.594 4542827.402 -5000.000
21539585.188 4543032.938 -5000.000
21539350.000 4543815.000 -4958.750
21539328.656 4543756.504 -5000.000
21539324.359 4543829.715 -5000.000
21539190.859 4543757.207 -5000.000
21539299.672 4543765.391 -5000.000

POLYGONS 499 1996
3 73 56 72
3 75 74 76
3 168 171 176
3 220 219 216
3 109 107 110
3 56 73 74
3 55 58 70
3 3 2 1
3 1 0 5
3 262 263 265
3 293 292 291
3 100 101 103
3 115 116 117
3 42 44 34
3 132 130 290
3 161 159 160
3 105 262 265
3 278 275 283
3 63 57 61
3 89 87 90
3 92 96 94
3 59 46 60
3 162 170 168
3 141 139 140
3 208 271 211
3 79 81 82
3 8 10 2
3 263 264 190
3 85 86 88
3 11 16 10
3 34 40 41
3 228 229 224
3 259 266 264
3 172 175 174
3 82 84 79
3 239 252 253
3 229 232 224
3 24 25 13
3 163 291 173
3 82 83 248
3 305 307 308
3 111 97 99
3 58 68 69
3 121 119 122
3 122 289 127
3 274 223 273
3 124 123 122
3 4 124 125
3 272 247 244
3 286 120 186
3 94 95 44
3 172 180 178
3 102 104 98
3 113 97 111
3 104 107 109
3 42 34 41
3 230 231 233
3 26 27 24
3 23 32 28
3 108 105 265
3 216 215 213
3 182 181 173
3 75 255 254
3 259 258 257
3 86 260 88
3 249 75 254
3 51 54 89
3 90 88 91
3 83 245 246
3 137 173 291
3 161 160 162
3 207 205 206
3 29 28 31
3 54 53 75
3 275 223 274
3 143 141 144
3 275 274 276
3 211 227 217
3 153 154 157
3 229 230 232
3 118 186 120
3 289 119 120
3 124 4 123
3 223 224 225
3 285 286 186
3 152 151 148
3 224 236 237
3 292 293 160
3 80 85 87
3 239 250 251
3 123 4 12
3 211 231 227
3 10 13 12
3 49 51 48
3 10 12 2
3 222 220 221
3 12 14 123
3 90 52 51
3 269 270 247
3 180 172 173
3 92 48 91
3 233 241 232
3 63 64 58
3 170 162 163
3 99 109 111
3 62 300 299
3 131 128 129
3 44 27 34
3 150 149 148
3 62 59 302
3 287 286 285
3 14 117 118
3 61 62 64
3 270 269 268
3 123 14 121
3 231 230 227
3 98 104 99
3 26 33 34
3 262 105 106
3 265 190 187
3 151 150 148
3 289 120 287
3 261 260 106
3 27 95 24
3 188 110 108
3 191 197 196
3 70 58 69
3 269 208 209
3 48 92 44
3 23 28 18
3 14 13 25
3 30 36 35
3 62 298 297
3 47 45 49
3 148 147 145
3 64 63 61
3 46 305 304
3 83 78 243
3 45 47 44
3 287 288 130
3 79 84 80
3 271 272 231
3 152 144 141
3 58 64 65
3 46 304 60
3 171 172 174
3 178 185 189
3 279 277 280
3 91 52 90
3 153 151 152
3 200 199 191
3 167 168 169
3 8 9 10
3 124 122 125
3 226 227 228
3 143 142 141
3 14 119 121
3 107 104 105
3 54 75 77
3 189 190 191
3 291 292 140
3 95 94 113
3 55 70 71
3 244 233 272
3 265 263 190
3 147 146 145
3 166 162 167
3 184 182 118
3 258 259 262
3 162 168 167
3 111 109 112
3 8 2 3
3 221 220 216
3 209 267 269
3 184 185 181
3 65 64 62
3 148 145 144
3 40 34 39
3 105 102 106
3 45 44 42
3 15 13 10
3 191 195 193
3 113 114 24
3 235 232 238
3 205 204 201
3 48 47 49
3 154 292 160
3 191 198 197
3 102 261 106
3 100 98 93
3 77 79 54
3 307 305 43
3 137 291 140
3 295 62 296
3 271 231 211
3 200 190 201
3 182 186 118
3 281 279 280
3 125 0 4
3 62 297 296
3 217 216 213
3 191 178 189
3 244 242 241
3 262 259 263
3 42 305 46
3 305 308 309
3 267 266 257
3 195 191 196
3 78 77 75
3 49 53 51
3 155 151 153
3 50 46 55
3 129 130 132
3 183 137 134
3 46 57 55
3 98 100 102
3 45 42 46
3 287 127 289
3 133 128 131
3 59 303 302
3 178 179 175
3 160 163 162
3 186 182 285
3 30 33 26
3 243 239 242
3 227 226 217
3 95 113 24
3 157 154 160
3 119 118 120
3 99 104 109
3 178 191 192
3 191 193 192
3 257 268 267
3 267 209 202
3 9 8 7
3 96 98 99
3 78 75 249
3 81 77 78
3 85 84 82
3 239 253 240
3 112 110 188
3 201 190 202
3 129 128 127
3 155 153 156
3 25 114 115
3 85 82 86
3 180 181 178
3 26 34 27
3 258 262 106
3 163 293 291
3 134 135 133
3 97 113 94
3 243 78 249
3 34 33 39
3 305 309 306
3 18 24 13
3 272 233 231
3 171 170 172
3 232 235 234
3 82 81 83
3 158 157 159
3 15 20 19
3 6 5 0
3 260 86 258
3 184 118 116
3 290 288 183
3 142 138 141
3 223 225 273
3 114 25 24
3 44 95 27
3 246 256 248
3 156 153 157
3 158 156 157
3 4 0 2
3 132 290 134
3 275 284 283
3 228 227 229
3 110 107 108
3 279 223 277
3 216 218 215
3 113 111 114
3 252 239 251
3 80 87 89
3 181 180 173
3 221 224 223
3 185 178 181
3 16 22 21
3 91 101 93
3 58 66 68
3 10 16 15
3 0 1 2
3 190 264 202
3 168 177 169
3 97 96 99
3 269 267 268
3 191 199 198
3 232 239 238
3 184 116 185
3 229 227 230
3 210 211 213
3 247 270 246
3 256 257 248
3 128 126 127
3 75 56 74
3 238 239 240
3 230 233 232
3 172 170 163
3 114 112 188
3 215 214 213
3 125 122 127
3 183 285 182
3 92 94 44
3 16 21 15
3 224 232 234
3 117 14 115
3 136 135 134
3 246 245 244
3 125 126 0
3 170 171 168
3 9 11 10
3 185 116 187
3 29 30 26
3 154 152 292
3 217 221 216
3 46 50 45
3 282 279 281
3 258 86 257
3 145 143 144
3 65 62 295
3 33 37 38
3 98 92 93
3 122 119 289
3 226 224 217
3 140 139 136
3 221 217 224
3 236 224 234
3 92 98 96
3 96 97 94
3 272 271 247
3 101 100 93
3 65 67 66
3 277 223 275
3 13 17 18
3 53 54 51
3 182 184 181
3 212 210 213
3 49 55 53
3 88 90 87
3 82 248 86
3 80 84 85
3 53 55 56
3 219 218 216
3 284 275 276
3 185 187 189
3 241 233 244
3 123 121 122
3 103 261 102
3 191 190 200
3 88 87 85
3 277 275 278
3 210 207 208
3 270 268 246
3 88 101 91
3 145 142 143
3 178 192 194
3 261 103 260
3 288 285 183
3 55 57 58
3 210 208 211
3 241 242 239
3 280 277 278
3 176 171 174
3 298 62 299
3 266 267 202
3 168 176 177
3 162 165 164
3 172 178 175
3 17 23 18
3 127 287 130
3 49 50 55
3 83 243 245
3 243 242 245
3 188 187 116
3 17 32 23
3 202 209 206
3 72 56 71
3 131 129 132
3 212 213 214
3 14 25 115
3 81 79 77
3 33 38 39
3 239 243 250
3 260 258 106
3 78 83 81
3 105 104 102
3 108 265 187
3 115 114 116
3 79 80 54
3 264 266 202
3 165 162 166
3 109 110 112
3 263 259 264
3 59 60 303
3 56 55 71
3 130 288 290
3 203 200 201
3 118 117 116
3 91 93 92
3 83 246 248
3 52 91 48
3 305 306 304
3 105 108 107
3 145 146 142
3 75 53 56
3 129 127 130
3 250 243 249
3 247 246 244
3 164 161 162
3 139 138 136
3 152 141 140
3 7 8 3
3 15 19 17
3 28 26 18
3 260 103 88
3 202 206 201
3 32 31 28
3 288 287 285
3 59 57 46
3 287 120 286
3 15 17 13
3 266 259 257
3 149 147 148
3 268 256 246
3 89 90 51
3 80 89 54
3 5 7 3
3 33 35 37
3 138 135 136
3 33 30 35
3 206 205 201
3 144 152 148
3 62 61 59
3 103 101 88
3 119 14 118
3 244 245 242
3 294 65 295
3 208 247 271
3 300 62 302
3 140 136 137
3 225 224 237
3 126 125 127
3 290 183 134
3 86 248 257
3 293 163 160
3 301 298 299
3 50 49 45
3 5 3 1
3 132 134 131
3 102 100 103
3 138 139 141
3 12 13 14
3 28 29 26
3 204 203 201
3 226 228 224
3 207 210 212
3 222 221 223
3 21 20 15
3 292 152 140
3 137 136 134
3 153 152 154
3 207 206 208
3 65 294 67
3 172 163 173
3 247 208 269
3 0 126 6
3 111 112 114
3 58 65 66
3 255 75 76
3 16 11 22
3 188 108 187
3 206 209 208
3 12 4 2
3 51 52 48
3 305 42 43
3 179 178 194
3 241 239 232
3 114 188 116
3 190 189 187
3 42 41 43
3 183 173 137
3 44 47 48
3 213 211 217
3 256 268 257
3 159 157 160
3 173 183 182
3 57 63 58
3 18 26 24
3 134 133 131
3 57 59 61

POINT_DATA 310
COLOR_SCALARS GocadColor 4
0 0 0.247058 1
0 0 0.247058 1
0 0 0.247058 1
0 0 0.247058 1
0 0 0.247058 1
0 0 0.247058 1
0 0 0.247058 1
0 0 0.247058 1
0 0 0.247058 1
0 0 0.247058 1
0 0 0.247058 1
0 0 0.247058 1
0 0 0.247058 1
0 0 0.247058 1
0 0 0.247058 1
0 0 0.247058 1
0 0 0.247058 1
0 0 0.247058 1
0 0 0.247058 1
0 0 0.247058 1
0 0 0.247058 1
0 0 0.247058 1
0 0 0.247058 1
0 0 0.247058 1
0 0 0.247058 1
0 0 0.247058 1
0 0 0.247058 1
0 0 0.247058 1
0 0 0.247058 1
0 0 0.247058 1
0 0 0.247058 1
0 0 0.247058 1
0 0 0.247058 1
0 0 0.247058 1
0 0 0.247058 1
0 0 0.247058 1
0 0 0.247058 1
0 0 0.247058 1
0 0 0.247058 1
0 0 0.247058 1
0 0 0.247058 1
0 0 0.247058 1
0 0 0.247058 1
0 0 0.247058 1
0 0 0.247058 1
0 0 0.247058 1
0 0 0.247058 1
0 0 0.247058 1
0 0 0.247058 1
0 0 0.247058 1
0 0 0.247058 1
0 0 0.247058 1
0 0 0.247058 1
0 0 0.247058 1
0 0 0.247058 1
0 0 0.247058 1
0 0 0.247058 1
0 0 0.247058 1
0 0 0.247058 1
0 0 0.247058 1
0 0 0.247058 1
0 0 0.247058 1
0 0 0.247058 1
0 0 0.247058 1
0 0 0.247058 1
0 0 0.247058 1
0 0 0.247058 1
0 0 0.247058 1
0 0 0.247058 1
0 0 0.247058 1
0 0 0.247058 1
0 0 0.247058 1
0 0 0.247058 1
0 0 0.247058 1
0 0 0.247058 1
0 0 0.247058 1
0 0 0.247058 1
0 0 0.247058 1
0 0 0.247058 1
0 0 0.247058 1
0 0 0.247058 1
0 0 0.247058 1
0 0 0.247058 1
0 0 0.247058 1
0 0 0.247058 1
0 0 0.247058 1
0 0 0.247058 1
0 0 0.247058 1
0 0 0.247058 1
0 0 0.247058 1
0 0 0.247058 1
0 0 0.247058 1
0 0 0.247058 1
0 0 0.247058 1
0 0 0.247058 1
0 0 0.247058 1
0 0 0.247058 1
0 0 0.247058 1
0 0 0.247058 1
0 0 0.247058 1
0 0 0.247058 1
0 0 0.247058 1
0 0 0.247058 1
0 0 0.247058 1
0 0 0.247058 1
0 0 0.247058 1
0 0 0.247058 1
0 0 0.247058 1
0 0 0.247058 1
0 0 0.247058 1
0 0 0.247058 1
0 0 0.247058 1
0 0 0.247058 1
0 0 0.247058 1
0 0 0.247058 1
0 0 0.247058 1
0 0 0.247058 1
0 0 0.247058 1
0 0 0.247058 1
0 0 0.247058 1
0 0 0.247058 1
0 0 0.247058 1
0 0 0.247058 1
0 0 0.247058 1
0 0 0.247058 1
0 0 0.247058 1
0 0 0.247058 1
0 0 0.247058 1
0 0 0.247058 1
0 0 0.247058 1
0 0 0.247058 1
0 0 0.247058 1
0 0 0.247058 1
0 0 0.247058 1
0 0 0.247058 1
0 0 0.247058 1
0 0 0.247058 1
0 0 0.247058 1
0 0 0.247058 1
0 0 0.247058 1
0 0 0.247058 1
0 0 0.247058 1
0 0 0.247058 1
0 0 0.247058 1
0 0 0.247058 1
0 0 0.247058 1
0 0 0.247058 1
0 0 0.247058 1
0 0 0.247058 1
0 0 0.247058 1
0 0 0.247058 1
0 0 0.247058 1
0 0 0.247058 1
0 0 0.247058 1
0 0 0.247058 1
0 0 0.247058 1
0 0 0.247058 1
0 0 0.247058 1
0 0 0.247058 1
0 0 0.247058 1
0 0 0.247058 1
0 0 0.247058 1
0 0 0.247058 1
0 0 0.247058 1
0 0 0.247058 1
0 0 0.247058 1
0 0 0.247058 1
0 0 0.247058 1
0 0 0.247058 1
0 0 0.247058 1
0 0 0.247058 1
0 0 0.247058 1
0 0 0.247058 1
0 0 0.247058 1
0 0 0.247058 1
0 0 0.247058 1
0 0 0.247058 1
0 0 0.247058 1
0 0 0.247058 1
0 0 0.247058 1
0 0 0.247058 1
0 0 0.247058 1
0 0 0.247058 1
0 0 0.247058 1
0 0 0.247058 1
0 0 0.247058 1
0 0 0.247058 1
0 0 0.247058 1
0 0 0.247058 1
0 0 0.247058 1
0 0 0.247058 1
0 0 0.247058 1
0 0 0.247058 1
0 0 0.247058 1
0 0 0.247058 1
0 0 0.247058 1
0 0 0.247058 1
0 0 0.247058 1
0 0 0.247058 1
0 0 0.247058 1
0 0 0.247058 1
0 0 0.247058 1
0 0 0.247058 1
0 0 0.247058 1
0 0 0.247058 1
0 0 0.247058 1
0 0 0.247058 1
0 0 0.247058 1
0 0 0.247058 1
0 0 0.247058 1
0 0 0.247058 1
0 0 0.247058 1
0 0 0.247058 1
0 0 0.247058 1
0 0 0.247058 1
0 0 0.247058 1
0 0 0.247058 1
0 0 0.247058 1
0 0 0.247058 1
0 0 0.247058 1
0 0 0.247058 1
0 0 0.247058 1
0 0 0.247058 1
0 0 0.247058 1
0 0 0.247058 1
0 0 0.247058 1
0 0 0.247058 1
0 0 0.247058 1
0 0 0.247058 1
0 0 0.247058 1
0 0 0.247058 1
0 0 0.247058 1
0 0 0.247058 1
0 0 0.247058 1
0 0 0.247058 1
0 0 0.247058 1
0 0 0.247058 1
0 0 0.247058 1
0 0 0.247058 1
0 0 0.247058 1
0 0 0.247058 1
0 0 0.247058 1
0 0 0.247058 1
0 0 0.247058 1
0 0 0.247058 1
0 0 0.247058 1
0 0 0.247058 1
0 0 0.247058 1
0 0 0.247058 1
0 0 0.247058 1
0 0 0.247058 1
0 0 0.247058 1
0 0 0.247058 1
0 0 0.247058 1
0 0 0.247058 1
0 0 0.247058 1
0 0 0.247058 1
0 0 0.247058 1
0 0 0.247058 1
0 0 0.247058 1
0 0 0.247058 1
0 0 0.247058 1
0 0 0.247058 1
0 0 0.247058 1
0 0 0.247058 1
0 0 0.247058 1
0 0 0.247058 1
0 0 0.247058 1
0 0 0.247058 1
0 0 0.247058 1
0 0 0.247058 1
0 0 0.247058 1
0 0 0.247058 1
0 0 0.247058 1
0 0 0.247058 1
0 0 0.247058 1
0 0 0.247058 1
0 0 0.247058 1
0 0 0.247058 1
0 0 0.247058 1
0 0 0.247058 1
0 0 0.247058 1
0 0 0.247058 1
0 0 0.247058 1
0 0 0.247058 1
0 0 0.247058 1
0 0 0.247058 1
0 0 0.247058 1
0 0 0.247058 1
0 0 0.247058 1
0 0 0.247058 1
0 0 0.247058 1
0 0 0.247058 1
0 0 0.247058 1
0 0 0.247058 1
0 0 0.247058 1
0 0 0.247058 1
0 0 0.247058 1
0 0 0.247058 1
0 0 0.247058 1
0 0 0.247058 1
0 0 0.247058 1
0 0 0.247058 1
0 0 0.247058 1
0 0 0.247058 1
0 0 0.247058 1
0 0 0.247058 1
0 0 0.247058 1
0 0 0.247058 1
0 0 0.247058 1

