# vtk DataFile Version 3.0
Gocad TSurf to VTK
ASCII
DATASET POLYDATA
POINTS 191 float
21546300.000 4560630.000 -2200.000
21546100.000 4560740.000 -2192.500
21546450.000 4561230.000 -2296.250
21545900.000 4560870.000 -2130.000
21546750.000 4561065.000 -2307.500
21545850.000 4560195.000 -2092.500
21545925.000 4560130.000 -2065.000
21545750.000 4560250.000 -2088.750
21545650.000 4560315.000 -2057.500
21545400.000 4559760.000 -1985.000
21546025.000 4560070.000 -2036.250
21546450.000 4560500.000 -2145.000
21546650.000 4560380.000 -2087.500
21546975.000 4560870.000 -2225.000
21547275.000 4560690.000 -2138.750
21547500.000 4561240.000 -2305.000
21547200.000 4561500.000 -2415.000
21547900.000 4561000.000 -2190.000
21547825.000 4561695.000 -2218.750
21547600.000 4561890.000 -2301.250
21548125.000 4561515.000 -2132.500
21548150.000 4562150.000 -2132.500
21548175.000 4561490.000 -2138.750
21548450.000 4561980.000 -2087.500
21548250.000 4561455.000 -2146.250
21548325.000 4561410.000 -2135.000
21548600.000 4561910.000 -2102.500
21548400.000 4561372.500 -2115.000
21548750.000 4561820.000 -2080.000
21548900.000 4561745.000 -2040.000
21549175.000 4562230.000 -2025.000
21548950.000 4562365.000 -2058.750
21549400.000 4562117.500 -1965.000
21549600.000 4562640.000 -1970.000
21549300.000 4562820.000 -2015.000
21549900.000 4562490.000 -1890.000
21550325.000 4563122.500 -1936.250
21550100.000 4563257.500 -1970.000
21550550.000 4563010.000 -1876.250
21551050.000 4563605.000 -1902.500
21550550.000 4562950.000 -1848.750
21551200.000 4563410.000 -1807.500
21551200.000 4563530.000 -1862.500
21551850.000 4563870.000 -1766.250
21551850.000 4564050.000 -1848.750
21551775.000 4564087.500 -1868.750
21552500.000 4564330.000 -1725.000
21552500.000 4564570.000 -1835.000
21552750.000 4564665.000 -1641.250
21552750.000 4564845.000 -1723.750
21552500.000 4564860.000 -1845.000
21553000.000 4565000.000 -1557.500
21553000.000 4565120.000 -1612.500
21552750.000 4565062.500 -1731.250
21553250.000 4565335.000 -1473.750
21553250.000 4565395.000 -1501.250
21553000.000 4565265.000 -1617.500
21553500.000 4565670.000 -1390.000
21553250.000 4565467.500 -1503.750
21553250.000 4565525.000 -1497.500
21553000.000 4565380.000 -1605.000
21553250.000 4565577.500 -1508.750
21553000.000 4565415.000 -1612.500
21553500.000 4565740.000 -1405.000
21553250.000 4565622.500 -1508.750
21553000.000 4565445.000 -1612.500
21553500.000 4565800.000 -1405.000
21552750.000 4565267.500 -1716.250
21552750.000 4565252.500 -1716.250
21552500.000 4565090.000 -1820.000
21552750.000 4565235.000 -1712.500
21551700.000 4564522.500 -1868.750
21551700.000 4564350.000 -1887.500
21551625.000 4564557.500 -1861.250
21550900.000 4563955.000 -1917.500
21551575.000 4564582.500 -1855.000
21550750.000 4564025.000 -1902.500
21550650.000 4564075.000 -1890.000
21550100.000 4563387.500 -1966.250
21549875.000 4563492.500 -1943.750
21550900.000 4563840.000 -1930.000
21550100.000 4563330.000 -1972.500
21551700.000 4564132.500 -1880.000
21550900.000 4563695.000 -1925.000
21549000.000 4562960.000 -1985.000
21549725.000 4563567.500 -1925.000
21548725.000 4562470.000 -2036.250
21548575.000 4562545.000 -2017.500
21548350.000 4562030.000 -2075.000
21548475.000 4562605.000 -2046.250
21548400.000 4562670.000 -2073.750
21548800.000 4563060.000 -1960.000
21548300.000 4562725.000 -2070.000
21548200.000 4562790.000 -2038.750
21548000.000 4562280.000 -2187.500
21547800.000 4562390.000 -2180.000
21547300.000 4562055.000 -2290.000
21547600.000 4562520.000 -2117.500
21547000.000 4562250.000 -2196.250
21546800.000 4561720.000 -2400.000
21546400.000 4561980.000 -2275.000
21546150.000 4561425.000 -2202.500
21546025.000 4561480.000 -2226.250
21545650.000 4560980.000 -2177.500
21545875.000 4561532.500 -2253.750
21545800.000 4561562.500 -2261.250
21545350.000 4561085.000 -2232.500
21545275.000 4560480.000 -2128.750
21545200.000 4561145.000 -2247.500
21544825.000 4560637.500 -2211.250
21545675.000 4561612.500 -2230.000
21544950.000 4561245.000 -2185.000
21544600.000 4560727.500 -2233.750
21544225.000 4560877.500 -2140.000
21544300.000 4560190.000 -2190.000
21544000.000 4560310.000 -2220.000
21544900.000 4559980.000 -2080.000
21544350.000 4560020.000 -2183.750
21545275.000 4559660.000 -2008.750
21544900.000 4559825.000 -2080.000
21544800.000 4559862.500 -2101.250
21545150.000 4559560.000 -2032.500
21544900.000 4559670.000 -2080.000
21545025.000 4559460.000 -2056.250
21544900.000 4559515.000 -2080.000
21544700.000 4559745.000 -2122.500
21544900.000 4559360.000 -2080.000
21544600.000 4559627.500 -2143.750
21544500.000 4559510.000 -2165.000
21544450.000 4559680.000 -2171.250
21544400.000 4559850.000 -2177.500
21544200.000 4559630.000 -2220.000
21543725.000 4559382.500 -1996.250
21544225.000 4559770.000 -2212.500
21544150.000 4559800.000 -2220.000
21544250.000 4559910.000 -2205.000
21544275.000 4560050.000 -2197.500
21544100.000 4559970.000 -2220.000
21544050.000 4560140.000 -2220.000
21543850.000 4560065.000 -2255.000
21543775.000 4559942.500 -2272.500
21543925.000 4560187.500 -2237.500
21543600.000 4560165.000 -2192.500
21543550.000 4560337.500 -2143.750
21543500.000 4560510.000 -2095.000
21543350.000 4560245.000 -2185.000
21543275.000 4560112.500 -2230.000
21543425.000 4560377.500 -2140.000
21543325.000 4560412.500 -2126.250
21543250.000 4560440.000 -2118.750
21543150.000 4560315.000 -2157.500
21543000.000 4560370.000 -2142.500
21542975.000 4560217.500 -2188.750
21543200.000 4559980.000 -2275.000
21542750.000 4560300.000 -2166.250
21542800.000 4560120.000 -2220.000
21542500.000 4560230.000 -2190.000
21542750.000 4559735.000 -2078.750
21543125.000 4559615.000 -2090.000
21542450.000 4559840.000 -2037.500
21542300.000 4559490.000 -1882.500
21542550.000 4559410.000 -1890.000
21542100.000 4559560.000 -1855.000
21542225.000 4559922.500 -2015.000
21541850.000 4559245.000 -1686.250
21541975.000 4559205.000 -1690.000
21541750.000 4559280.000 -1672.500
21541950.000 4559615.000 -1840.000
21541400.000 4559000.000 -1490.000
21541675.000 4559307.500 -1665.000
21542100.000 4559157.500 -1672.500
21542175.000 4559127.500 -1658.750
21542800.000 4559315.000 -1855.000
21542275.000 4559090.000 -1637.500
21542950.000 4559255.000 -1827.500
21543150.000 4559180.000 -1785.000
21543500.000 4559472.500 -2037.500
21544025.000 4559270.000 -1932.500
21543700.000 4559820.000 -2290.000
21543650.000 4559992.500 -2241.250
21541675.000 4559307.500 -1665.000
21541950.000 4559615.000 -1840.000
21541675.000 4559322.500 -1695.000
21542225.000 4559922.500 -2015.000
21541950.000 4559625.000 -1860.000
21542225.000 4559927.500 -2025.000
21542225.000 4559940.000 -2025.000
21541950.000 4559650.000 -1860.000
21541675.000 4559360.000 -1695.000
21541400.000 4559070.000 -1530.000
21541400.000 4559020.000 -1530.000

POLYGONS 328 1312
3 154 155 156
3 174 176 132
3 175 174 132
3 56 70 60
3 6 0 11
3 111 112 113
3 51 52 54
3 89 90 91
3 19 15 16
3 152 155 154
3 14 15 17
3 26 86 31
3 145 146 150
3 65 64 61
3 167 180 181
3 117 130 135
3 124 126 127
3 150 152 151
3 92 93 91
3 164 168 166
3 3 101 2
3 101 100 99
3 10 11 12
3 140 179 139
3 125 124 127
3 84 34 31
3 76 77 75
3 44 43 42
3 23 88 86
3 24 17 22
3 73 76 75
3 138 137 139
3 106 107 109
3 6 5 0
3 4 2 99
3 28 26 31
3 151 152 154
3 137 138 136
3 134 137 135
3 142 179 146
3 24 23 26
3 162 167 163
3 8 9 107
3 173 168 171
3 165 168 164
3 62 60 68
3 10 9 6
3 30 34 33
3 133 134 135
3 46 43 44
3 157 159 155
3 130 129 133
3 49 53 52
3 163 167 181
3 182 190 189
3 50 69 53
3 170 161 172
3 119 120 116
3 135 137 136
3 183 185 156
3 1 3 2
3 61 62 65
3 133 131 134
3 47 44 45
3 158 157 153
3 6 9 5
3 104 106 105
3 179 153 146
3 28 31 30
3 176 158 178
3 60 70 68
3 38 36 39
3 96 16 99
3 185 187 186
3 65 62 67
3 89 91 87
3 10 6 11
3 161 157 158
3 50 47 72
3 12 11 13
3 147 145 148
3 163 183 156
3 143 144 115
3 102 104 100
3 39 83 82
3 165 160 161
3 95 96 97
3 160 159 157
3 102 103 104
3 42 39 45
3 143 142 145
3 90 21 94
3 136 138 114
3 61 63 57
3 4 99 16
3 18 17 15
3 104 105 100
3 134 178 140
3 120 117 116
3 138 115 114
3 179 178 153
3 101 3 102
3 2 101 99
3 101 102 100
3 107 116 109
3 72 82 80
3 3 8 103
3 121 122 119
3 180 168 190
3 74 78 76
3 176 178 131
3 70 69 68
3 22 17 20
3 118 116 9
3 36 33 37
3 130 133 135
3 123 124 122
3 79 84 85
3 47 45 82
3 59 60 62
3 57 58 59
3 26 23 86
3 22 20 23
3 86 87 84
3 41 40 38
3 58 60 59
3 33 34 37
3 171 170 172
3 169 168 180
3 120 122 125
3 175 132 177
3 146 153 152
3 130 117 120
3 173 171 174
3 37 34 81
3 179 142 139
3 88 20 21
3 35 33 36
3 150 146 152
3 20 88 23
3 39 36 83
3 106 109 108
3 129 128 131
3 11 0 4
3 143 147 144
3 110 108 111
3 0 2 4
3 164 162 160
3 90 92 91
3 14 13 15
3 185 186 156
3 148 145 150
3 109 114 112
3 117 114 116
3 89 88 21
3 137 134 140
3 180 190 182
3 25 26 28
3 165 164 160
3 42 38 39
3 19 16 96
3 170 165 161
3 183 181 184
3 79 85 77
3 93 95 97
3 140 178 179
3 62 68 67
3 5 1 0
3 108 109 112
3 95 19 96
3 45 39 82
3 108 112 111
3 43 41 42
3 127 129 125
3 92 94 95
3 57 55 58
3 166 167 162
3 127 128 129
3 5 7 1
3 64 66 63
3 181 180 182
3 12 13 14
3 112 115 113
3 50 72 71
3 13 16 15
3 138 139 141
3 38 35 36
3 76 79 77
3 117 135 136
3 119 122 120
3 92 95 93
3 122 124 125
3 143 145 147
3 173 174 175
3 170 168 165
3 11 4 13
3 98 99 100
3 90 94 92
3 13 4 16
3 18 15 19
3 69 50 71
3 96 99 98
3 21 18 94
3 164 166 162
3 149 150 151
3 182 189 188
3 5 9 7
3 94 18 19
3 71 72 74
3 47 50 49
3 125 130 120
3 161 160 157
3 171 168 170
3 172 161 158
3 123 126 124
3 29 28 30
3 159 163 156
3 166 168 169
3 57 59 61
3 72 80 74
3 33 35 32
3 112 114 115
3 31 34 30
3 148 150 149
3 183 184 185
3 148 149 144
3 109 116 114
3 105 106 108
3 83 37 81
3 78 34 79
3 162 163 159
3 91 84 87
3 29 30 32
3 53 70 56
3 27 17 25
3 132 131 128
3 123 122 121
3 139 142 141
3 142 143 141
3 107 9 116
3 147 148 144
3 31 86 84
3 46 47 48
3 185 184 187
3 57 54 55
3 137 140 139
3 71 74 73
3 184 182 188
3 25 24 26
3 51 49 52
3 47 46 44
3 104 103 106
3 0 1 2
3 172 158 176
3 89 21 90
3 121 119 118
3 103 107 106
3 27 25 28
3 61 59 62
3 141 143 115
3 177 132 128
3 127 126 128
3 52 56 55
3 48 49 51
3 24 22 23
3 78 79 76
3 142 146 145
3 134 131 178
3 118 119 116
3 27 28 29
3 88 87 86
3 103 8 107
3 132 176 131
3 44 42 45
3 8 3 1
3 94 19 95
3 55 56 58
3 74 76 73
3 48 47 49
3 53 69 70
3 174 172 176
3 42 41 38
3 157 155 153
3 7 8 1
3 167 169 180
3 80 83 81
3 102 3 103
3 69 73 75
3 152 153 155
3 84 91 85
3 129 131 133
3 128 126 177
3 171 172 174
3 105 110 100
3 54 52 55
3 21 20 18
3 82 83 80
3 40 35 38
3 158 153 178
3 166 169 167
3 74 80 78
3 81 34 78
3 68 69 67
3 7 9 8
3 138 141 115
3 181 182 184
3 20 17 18
3 69 71 73
3 160 162 159
3 49 50 53
3 159 156 155
3 36 37 83
3 80 81 78
3 25 17 24
3 105 108 110
3 32 30 33
3 52 53 56
3 184 188 187
3 87 88 89
3 64 63 61
3 129 130 125
3 47 82 72
3 34 84 79
3 113 115 144
3 97 96 98
3 117 136 114
3 56 60 58
3 163 181 183

POINT_DATA 191
COLOR_SCALARS GocadColor 4
1 0.498039 0.313726 1
1 0.498039 0.313726 1
1 0.498039 0.313726 1
1 0.498039 0.313726 1
1 0.498039 0.313726 1
1 0.498039 0.313726 1
1 0.498039 0.313726 1
1 0.498039 0.313726 1
1 0.498039 0.313726 1
1 0.498039 0.313726 1
1 0.498039 0.313726 1
1 0.498039 0.313726 1
1 0.498039 0.313726 1
1 0.498039 0.313726 1
1 0.498039 0.313726 1
1 0.498039 0.313726 1
1 0.498039 0.313726 1
1 0.498039 0.313726 1
1 0.498039 0.313726 1
1 0.498039 0.313726 1
1 0.498039 0.313726 1
1 0.498039 0.313726 1
1 0.498039 0.313726 1
1 0.498039 0.313726 1
1 0.498039 0.313726 1
1 0.498039 0.313726 1
1 0.498039 0.313726 1
1 0.498039 0.313726 1
1 0.498039 0.313726 1
1 0.498039 0.313726 1
1 0.498039 0.313726 1
1 0.498039 0.313726 1
1 0.498039 0.313726 1
1 0.498039 0.313726 1
1 0.498039 0.313726 1
1 0.498039 0.313726 1
1 0.498039 0.313726 1
1 0.498039 0.313726 1
1 0.498039 0.313726 1
1 0.498039 0.313726 1
1 0.498039 0.313726 1
1 0.498039 0.313726 1
1 0.498039 0.313726 1
1 0.498039 0.313726 1
1 0.498039 0.313726 1
1 0.498039 0.313726 1
1 0.498039 0.313726 1
1 0.498039 0.313726 1
1 0.498039 0.313726 1
1 0.498039 0.313726 1
1 0.498039 0.313726 1
1 0.498039 0.313726 1
1 0.498039 0.313726 1
1 0.498039 0.313726 1
1 0.498039 0.313726 1
1 0.498039 0.313726 1
1 0.498039 0.313726 1
1 0.498039 0.313726 1
1 0.498039 0.313726 1
1 0.498039 0.313726 1
1 0.498039 0.313726 1
1 0.498039 0.313726 1
1 0.498039 0.313726 1
1 0.498039 0.313726 1
1 0.498039 0.313726 1
1 0.498039 0.313726 1
1 0.498039 0.313726 1
1 0.498039 0.313726 1
1 0.498039 0.313726 1
1 0.498039 0.313726 1
1 0.498039 0.313726 1
1 0.498039 0.313726 1
1 0.498039 0.313726 1
1 0.498039 0.313726 1
1 0.498039 0.313726 1
1 0.498039 0.313726 1
1 0.498039 0.313726 1
1 0.498039 0.313726 1
1 0.498039 0.313726 1
1 0.498039 0.313726 1
1 0.498039 0.313726 1
1 0.498039 0.313726 1
1 0.498039 0.313726 1
1 0.498039 0.313726 1
1 0.498039 0.313726 1
1 0.498039 0.313726 1
1 0.498039 0.313726 1
1 0.498039 0.313726 1
1 0.498039 0.313726 1
1 0.498039 0.313726 1
1 0.498039 0.313726 1
1 0.498039 0.313726 1
1 0.498039 0.313726 1
1 0.498039 0.313726 1
1 0.498039 0.313726 1
1 0.498039 0.313726 1
1 0.498039 0.313726 1
1 0.498039 0.313726 1
1 0.498039 0.313726 1
1 0.498039 0.313726 1
1 0.498039 0.313726 1
1 0.498039 0.313726 1
1 0.498039 0.313726 1
1 0.498039 0.313726 1
1 0.498039 0.313726 1
1 0.498039 0.313726 1
1 0.498039 0.313726 1
1 0.498039 0.313726 1
1 0.498039 0.313726 1
1 0.498039 0.313726 1
1 0.498039 0.313726 1
1 0.498039 0.313726 1
1 0.498039 0.313726 1
1 0.498039 0.313726 1
1 0.498039 0.313726 1
1 0.498039 0.313726 1
1 0.498039 0.313726 1
1 0.498039 0.313726 1
1 0.498039 0.313726 1
1 0.498039 0.313726 1
1 0.498039 0.313726 1
1 0.498039 0.313726 1
1 0.498039 0.313726 1
1 0.498039 0.313726 1
1 0.498039 0.313726 1
1 0.498039 0.313726 1
1 0.498039 0.313726 1
1 0.498039 0.313726 1
1 0.498039 0.313726 1
1 0.498039 0.313726 1
1 0.498039 0.313726 1
1 0.498039 0.313726 1
1 0.498039 0.313726 1
1 0.498039 0.313726 1
1 0.498039 0.313726 1
1 0.498039 0.313726 1
1 0.498039 0.313726 1
1 0.498039 0.313726 1
1 0.498039 0.313726 1
1 0.498039 0.313726 1
1 0.498039 0.313726 1
1 0.498039 0.313726 1
1 0.498039 0.313726 1
1 0.498039 0.313726 1
1 0.498039 0.313726 1
1 0.498039 0.313726 1
1 0.498039 0.313726 1
1 0.498039 0.313726 1
1 0.498039 0.313726 1
1 0.498039 0.313726 1
1 0.498039 0.313726 1
1 0.498039 0.313726 1
1 0.498039 0.313726 1
1 0.498039 0.313726 1
1 0.498039 0.313726 1
1 0.498039 0.313726 1
1 0.498039 0.313726 1
1 0.498039 0.313726 1
1 0.498039 0.313726 1
1 0.498039 0.313726 1
1 0.498039 0.313726 1
1 0.498039 0.313726 1
1 0.498039 0.313726 1
1 0.498039 0.313726 1
1 0.498039 0.313726 1
1 0.498039 0.313726 1
1 0.498039 0.313726 1
1 0.498039 0.313726 1
1 0.498039 0.313726 1
1 0.498039 0.313726 1
1 0.498039 0.313726 1
1 0.498039 0.313726 1
1 0.498039 0.313726 1
1 0.498039 0.313726 1
1 0.498039 0.313726 1
1 0.498039 0.313726 1
1 0.498039 0.313726 1
1 0.498039 0.313726 1
1 0.498039 0.313726 1
1 0.498039 0.313726 1
1 0.498039 0.313726 1
1 0.498039 0.313726 1
1 0.498039 0.313726 1
1 0.498039 0.313726 1
1 0.498039 0.313726 1
1 0.498039 0.313726 1
1 0.498039 0.313726 1
1 0.498039 0.313726 1
1 0.498039 0.313726 1
1 0.498039 0.313726 1
1 0.498039 0.313726 1

