# vtk DataFile Version 3.0
Gocad TSurf to VTK
ASCII
DATASET POLYDATA
POINTS 374 float
21575650.000 4578207.500 -373.750
21575375.000 4578030.000 -141.250
21575000.000 4578150.000 -475.000
21574950.000 4577900.000 -182.500
21575550.000 4578342.500 -561.250
21575500.000 4577990.000 -30.000
21575825.000 4578060.000 -223.750
21575400.000 4577660.000 -15.000
21575725.000 4577682.500 -112.500
21575250.000 4577595.000 -15.000
21575400.000 4577400.000 -30.000
21575025.000 4577815.000 -91.250
21575000.000 4577690.000 -30.000
21574950.000 4577770.000 -113.750
21574800.000 4577800.000 -77.500
21574900.000 4577745.000 -53.750
21574900.000 4577650.000 15.000
21574825.000 4577715.000 -20.000
21574750.000 4577780.000 -55.000
21574750.000 4577677.500 103.750
21574800.000 4577600.000 180.000
21574700.000 4577755.000 27.500
21574725.000 4577662.500 193.750
21574700.000 4577855.000 -101.250
21574575.000 4577787.500 221.250
21574525.000 4578002.500 -163.750
21574500.000 4577850.000 235.000
21574800.000 4578010.000 -365.000
21574550.000 4578145.000 -322.500
21574875.000 4578215.000 -488.750
21574725.000 4578110.000 -406.250
21574900.000 4578365.000 -585.000
21574650.000 4578210.000 -447.500
21575525.000 4578572.500 -707.500
21575275.000 4578725.000 -782.500
21575925.000 4578547.500 -651.250
21575825.000 4578745.000 -760.000
21575950.000 4578455.000 -577.500
21575875.000 4578305.000 -486.250
21576050.000 4578535.000 -585.000
21576125.000 4578692.500 -625.000
21576125.000 4578482.500 -515.000
21575975.000 4578362.500 -503.750
21576240.906 4578559.141 -446.850
21576000.000 4578270.000 -430.000
21576050.000 4578157.500 -336.250
21576100.000 4578190.000 -388.750
21575950.000 4577980.000 -167.500
21576100.000 4578045.000 -242.500
21575850.000 4577925.000 -175.000
21575925.000 4577817.500 -122.500
21575750.000 4577850.000 -50.000
21575875.000 4577780.000 -60.000
21575800.000 4577580.000 -140.000
21576000.000 4577710.000 -70.000
21575706.797 4577403.414 201.222
21576113.594 4577456.828 167.444
21575300.000 4577350.000 235.000
21575175.000 4577412.500 221.250
21575175.000 4577412.500 221.250
21575000.000 4577575.000 70.000
21576213.594 4577506.828 -5.056
21576520.406 4577510.234 133.666
21576545.406 4577522.734 67.416
21576363.594 4577571.828 -20.056
21576927.203 4577563.656 99.888
21576745.406 4577627.734 61.166
21576563.594 4577691.828 22.444
21576845.406 4577687.734 8.666
21576763.594 4577811.828 -82.556
21576949.938 4577766.688 45.819
21576899.953 4577897.789 -21.120
21576999.906 4577635.578 112.759
21577200.000 4577720.000 -15.000
21577100.000 4577830.000 -50.000
21577350.000 4577942.500 23.750
21577200.000 4578040.000 7.500
21577400.000 4577800.000 -15.000
21577500.000 4577890.000 155.000
21577425.000 4578010.000 151.250
21577300.000 4578085.000 62.500
21577350.000 4578130.000 147.500
21577250.000 4578227.500 101.250
21577275.000 4578250.000 143.750
21577200.000 4578370.000 140.000
21577050.000 4578140.000 18.750
21577000.000 4578280.000 30.000
21576900.000 4578050.000 -120.000
21577125.000 4578482.500 108.750
21576975.000 4578415.000 26.250
21577175.000 4578512.500 150.000
21577050.000 4578595.000 77.500
21577150.000 4578655.000 160.000
21576950.000 4578550.000 22.500
21577125.000 4578797.500 170.000
21576900.000 4578920.000 7.500
21576700.000 4578542.500 -221.250
21577100.000 4578940.000 180.000
21577050.000 4579010.000 131.250
21577130.922 4579000.828 187.217
21576900.000 4579020.000 0.000
21576800.000 4578980.000 -27.500
21577000.000 4579080.000 82.500
21577025.000 4579210.000 67.500
21576900.000 4579120.000 -7.500
21576700.000 4579140.000 -70.000
21577000.000 4579300.000 30.000
21576925.000 4579402.500 -25.000
21577281.203 4579371.383 205.211
21577273.766 4579353.039 204.320
21577328.969 4579489.156 210.930
21576950.000 4579585.000 -35.000
21577341.672 4579537.125 213.063
21577354.016 4579578.289 214.935
21577300.000 4579635.000 173.750
21577000.000 4579787.500 -33.750
21577338.703 4579654.352 217.286
21577323.891 4579727.875 219.558
21577300.000 4579790.000 210.000
21577100.000 4579845.000 21.250
21577250.000 4579920.000 190.000
21577200.000 4580050.000 170.000
21576975.000 4580162.500 3.750
21576400.000 4579812.500 -498.750
21577125.000 4580237.500 172.500
21576950.000 4580375.000 62.500
21576800.000 4580305.000 -70.000
21577050.000 4580425.000 175.000
21576975.000 4580612.500 177.500
21576900.000 4580800.000 180.000
21576575.000 4580805.000 -21.250
21576575.000 4580397.500 -190.000
21576800.000 4580910.000 177.500
21576550.000 4580950.000 42.500
21576525.000 4580772.500 -77.500
21576700.000 4581020.000 175.000
21576525.000 4581095.000 106.250
21576300.000 4581110.000 -55.000
21576600.000 4581130.000 172.500
21576500.000 4581240.000 170.000
21576300.000 4581275.000 57.500
21576175.000 4581110.000 -93.750
21576350.000 4581390.000 170.000
21576300.000 4581440.000 170.000
21576350.000 4581390.000 170.000
21575925.000 4581110.000 -171.250
21575800.000 4581110.000 -210.000
21575900.000 4581405.000 -27.500
21575750.000 4580905.000 -385.000
21575850.000 4580980.000 -315.000
21575225.000 4580677.500 -555.000
21575550.000 4580697.500 -552.500
21575100.000 4580690.000 -530.000
21575050.000 4580480.000 -702.500
21575200.000 4581065.000 -375.000
21575000.000 4581050.000 -430.000
21576000.000 4581690.000 155.000
21576075.000 4581627.500 158.750
21575775.000 4581665.000 85.000
21575925.000 4581745.000 151.250
21575075.000 4581432.500 -201.250
21574625.000 4581110.000 -388.750
21575700.000 4581910.000 140.000
21575775.000 4581855.000 143.750
21575325.000 4581965.000 62.500
21574975.000 4581577.500 -115.000
21575475.000 4582052.500 128.750
21575400.000 4582100.000 125.000
21574700.000 4581700.000 -40.000
21574750.000 4581835.000 -12.500
21574625.000 4581762.500 -60.000
21575275.000 4582135.000 111.250
21574850.000 4582105.000 42.500
21575200.000 4582220.000 140.000
21575141.828 4582254.898 144.362
21575142.297 4582258.953 144.328
21575119.828 4582270.219 143.392
21575097.516 4582275.672 142.535
21575090.000 4582280.203 143.301
21575089.406 4582284.984 143.394
21574900.000 4582240.000 70.000
21574997.422 4582347.172 152.813
21574700.000 4582160.000 15.000
21574700.000 4582045.000 1.250
21574700.000 4581930.000 -12.500
21574675.000 4582027.500 -10.000
21574650.000 4581895.000 -35.000
21575141.828 4582254.898 144.362
21574600.000 4581630.000 -85.000
21574575.000 4581505.000 -157.500
21574550.000 4581380.000 -230.000
21574525.000 4581255.000 -302.500
21574500.000 4581130.000 -375.000
21574475.000 4581022.500 -438.750
21574450.000 4580915.000 -502.500
21574425.000 4580807.500 -566.250
21574400.000 4580700.000 -630.000
21574575.000 4580697.500 -605.000
21574425.000 4580600.000 -650.000
21574475.000 4580400.000 -690.000
21574300.000 4580517.500 -667.500
21574200.000 4580335.000 -705.000
21574100.000 4580152.500 -742.500
21574500.000 4580300.000 -710.000
21574000.000 4579970.000 -780.000
21574625.000 4580292.500 -751.250
21575050.000 4580137.500 -882.500
21574150.000 4579980.000 -815.000
21574575.000 4579510.000 -812.500
21573925.000 4579837.500 -745.000
21573850.000 4579705.000 -710.000
21573650.000 4579585.000 -605.000
21573700.000 4579695.000 -538.750
21573400.000 4579420.000 -297.500
21573475.000 4579392.500 -517.500
21573700.000 4579440.000 -640.000
21573250.000 4579212.500 -288.750
21573100.000 4579145.000 -56.250
21573300.000 4579200.000 -430.000
21573100.000 4579040.000 -250.000
21573250.000 4578982.500 -257.500
21573075.000 4578857.500 -58.750
21573550.000 4578867.500 -272.500
21572835.172 4578868.398 153.826
21572844.172 4578910.492 149.475
21572930.719 4578792.570 164.891
21572971.266 4578760.391 169.586
21573050.000 4578710.000 162.500
21573175.000 4578630.000 151.250
21572971.266 4578760.391 169.586
21573300.000 4578550.000 140.000
21573850.000 4578677.500 -280.000
21573700.000 4579125.000 -460.000
21573475.000 4578447.500 153.750
21573850.000 4578475.000 -42.500
21573900.000 4578495.000 -155.000
21573650.000 4578345.000 167.500
21573925.000 4578307.500 76.250
21574000.000 4578337.500 -92.500
21573825.000 4578242.500 181.250
21574000.000 4578140.000 195.000
21574100.000 4578180.000 -30.000
21574200.000 4578097.500 36.250
21574275.000 4578482.500 -352.500
21574000.000 4578545.000 -280.000
21574375.000 4578187.500 -241.250
21574500.000 4578410.000 -530.000
21574350.000 4578045.000 -77.500
21574450.000 4578095.000 -202.500
21574300.000 4578015.000 102.500
21574125.000 4578067.500 205.000
21574375.000 4577922.500 225.000
21574250.000 4577995.000 215.000
21574125.000 4578067.500 205.000
21574775.000 4578795.000 -723.750
21574425.000 4578580.000 -540.000
21574500.000 4578835.000 -632.500
21574250.000 4578685.000 -425.000
21574350.000 4578750.000 -550.000
21574225.000 4578887.500 -497.500
21574200.000 4579090.000 -570.000
21574750.000 4579010.000 -752.500
21574700.000 4579440.000 -810.000
21575200.000 4579057.500 -845.000
21574950.000 4579135.000 -817.500
21575575.000 4578897.500 -812.500
21575550.000 4578735.000 -760.000
21575500.000 4579230.000 -875.000
21575828.438 4579451.500 -828.475
21575200.000 4579285.000 -865.000
21575400.000 4579400.000 -885.000
21575200.000 4579512.500 -885.000
21575550.000 4579505.000 -865.000
21575375.000 4579622.500 -885.000
21575756.891 4579633.000 -831.949
21576058.797 4579605.500 -746.669
21575701.391 4579826.484 -815.008
21575950.000 4579755.000 -787.500
21575625.000 4580157.500 -818.750
21576175.000 4579685.000 -686.250
21576200.000 4579470.000 -725.000
21576150.000 4579900.000 -647.500
21576325.000 4579752.500 -603.750
21576400.000 4579560.000 -615.000
21576200.000 4580165.000 -538.750
21576500.000 4579640.000 -475.000
21576550.000 4579515.000 -373.750
21576475.000 4579470.000 -467.500
21576450.000 4579300.000 -460.000
21576400.000 4579410.000 -572.500
21576400.000 4579260.000 -530.000
21576250.000 4579342.500 -655.000
21576425.000 4579130.000 -452.500
21576346.141 4579083.359 -534.032
21576363.609 4578946.570 -452.401
21576281.813 4579208.281 -588.701
21576131.813 4579108.281 -638.701
[...]
POINT_DATA 374
COLOR_SCALARS GocadColor 4
0.313725 0.623529 0.411765 1
0.313725 0.623529 0.411765 1
0.313725 0.623529 0.411765 1
0.313725 0.623529 0.411765 1
0.313725 0.623529 0.411765 1
0.313725 0.623529 0.411765 1
0.313725 0.623529 0.411765 1
0.313725 0.623529 0.411765 1
0.313725 0.623529 0.411765 1
0.313725 0.623529 0.411765 1
0.313725 0.623529 0.411765 1
0.313725 0.623529 0.411765 1
0.313725 0.623529 0.411765 1
0.313725 0.623529 0.411765 1
0.313725 0.623529 0.411765 1
0.313725 0.623529 0.411765 1
0.313725 0.623529 0.411765 1
0.313725 0.623529 0.411765 1
0.313725 0.623529 0.411765 1
0.313725 0.623529 0.411765 1
0.313725 0.623529 0.411765 1
0.313725 0.623529 0.411765 1
0.313725 0.623529 0.411765 1
0.313725 0.623529 0.411765 1
0.313725 0.623529 0.411765 1
0.313725 0.623529 0.411765 1
0.313725 0.623529 0.411765 1
0.313725 0.623529 0.411765 1
0.313725 0.623529 0.411765 1
0.313725 0.623529 0.411765 1
0.313725 0.623529 0.411765 1
0.313725 0.623529 0.411765 1
0.313725 0.623529 0.411765 1
0.313725 0.623529 0.411765 1
0.313725 0.623529 0.411765 1
0.313725 0.623529 0.411765 1
0.313725 0.623529 0.411765 1
0.313725 0.623529 0.411765 1
0.313725 0.623529 0.411765 1
0.313725 0.623529 0.411765 1
0.313725 0.623529 0.411765 1
0.313725 0.623529 0.411765 1
0.313725 0.623529 0.411765 1
0.313725 0.623529 0.411765 1
0.313725 0.623529 0.411765 1
0.313725 0.623529 0.411765 1
0.313725 0.623529 0.411765 1
0.313725 0.623529 0.411765 1
0.313725 0.623529 0.411765 1
0.313725 0.623529 0.411765 1
0.313725 0.623529 0.411765 1
0.313725 0.623529 0.411765 1
0.313725 0.623529 0.411765 1
0.313725 0.623529 0.411765 1
0.313725 0.623529 0.411765 1
0.313725 0.623529 0.411765 1
0.313725 0.623529 0.411765 1
0.313725 0.623529 0.411765 1
0.313725 0.623529 0.411765 1
0.313725 0.623529 0.411765 1
0.313725 0.623529 0.411765 1
0.313725 0.623529 0.411765 1
0.313725 0.623529 0.411765 1
0.313725 0.623529 0.411765 1
0.313725 0.623529 0.411765 1
0.313725 0.623529 0.411765 1
0.313725 0.623529 0.411765 1
0.313725 0.623529 0.411765 1
0.313725 0.623529 0.411765 1
0.313725 0.623529 0.411765 1
0.313725 0.623529 0.411765 1
0.313725 0.623529 0.411765 1
0.313725 0.623529 0.411765 1
0.313725 0.623529 0.411765 1
0.313725 0.623529 0.411765 1
0.313725 0.623529 0.411765 1
0.313725 0.623529 0.411765 1
0.313725 0.623529 0.411765 1
0.313725 0.623529 0.411765 1
0.313725 0.623529 0.411765 1
0.313725 0.623529 0.411765 1
0.313725 0.623529 0.411765 1
0.313725 0.623529 0.411765 1
0.313725 0.623529 0.411765 1
0.313725 0.623529 0.411765 1
0.313725 0.623529 0.411765 1
0.313725 0.623529 0.411765 1
0.313725 0.623529 0.411765 1
0.313725 0.623529 0.411765 1
0.313725 0.623529 0.411765 1
0.313725 0.623529 0.411765 1
0.313725 0.623529 0.411765 1
0.313725 0.623529 0.411765 1
0.313725 0.623529 0.411765 1
0.313725 0.623529 0.411765 1
0.313725 0.623529 0.411765 1
0.313725 0.623529 0.411765 1
0.313725 0.623529 0.411765 1
0.313725 0.623529 0.411765 1
0.313725 0.623529 0.411765 1
0.313725 0.623529 0.411765 1
0.313725 0.623529 0.411765 1
0.313725 0.623529 0.411765 1
0.313725 0.623529 0.411765 1
0.313725 0.623529 0.411765 1
0.313725 0.623529 0.411765 1
0.313725 0.623529 0.411765 1
0.313725 0.623529 0.411765 1
0.313725 0.623529 0.411765 1
0.313725 0.623529 0.411765 1
0.313725 0.623529 0.411765 1
0.313725 0.623529 0.411765 1
0.313725 0.623529 0.411765 1
0.313725 0.623529 0.411765 1
0.313725 0.623529 0.411765 1
0.313725 0.623529 0.411765 1
0.313725 0.623529 0.411765 1
0.313725 0.623529 0.411765 1
0.313725 0.623529 0.411765 1
0.313725 0.623529 0.411765 1
0.313725 0.623529 0.411765 1
0.313725 0.623529 0.411765 1
0.313725 0.623529 0.411765 1
0.313725 0.623529 0.411765 1
0.313725 0.623529 0.411765 1
0.313725 0.623529 0.411765 1
0.313725 0.623529 0.411765 1
0.313725 0.623529 0.411765 1
0.313725 0.623529 0.411765 1
0.313725 0.623529 0.411765 1
0.313725 0.623529 0.411765 1
0.313725 0.623529 0.411765 1
0.313725 0.623529 0.411765 1
0.313725 0.623529 0.411765 1
0.313725 0.623529 0.411765 1
0.313725 0.623529 0.411765 1
0.313725 0.623529 0.411765 1
0.313725 0.623529 0.411765 1
0.313725 0.623529 0.411765 1
0.313725 0.623529 0.411765 1
0.313725 0.623529 0.411765 1
0.313725 0.623529 0.411765 1
0.313725 0.623529 0.411765 1
0.313725 0.623529 0.411765 1
0.313725 0.623529 0.411765 1
0.313725 0.623529 0.411765 1
0.313725 0.623529 0.411765 1
0.313725 0.623529 0.411765 1
0.313725 0.623529 0.411765 1
0.313725 0.623529 0.411765 1
0.313725 0.623529 0.411765 1
0.313725 0.623529 0.411765 1
0.313725 0.623529 0.411765 1
0.313725 0.623529 0.411765 1
0.313725 0.623529 0.411765 1
0.313725 0.623529 0.411765 1
0.313725 0.623529 0.411765 1
0.313725 0.623529 0.411765 1
0.313725 0.623529 0.411765 1
0.313725 0.623529 0.411765 1
0.313725 0.623529 0.411765 1
0.313725 0.623529 0.411765 1
0.313725 0.623529 0.411765 1
0.313725 0.623529 0.411765 1
0.313725 0.623529 0.411765 1
0.313725 0.623529 0.411765 1
0.313725 0.623529 0.411765 1
0.313725 0.623529 0.411765 1
0.313725 0.623529 0.411765 1
0.313725 0.623529 0.411765 1
0.313725 0.623529 0.411765 1
0.313725 0.623529 0.411765 1
0.313725 0.623529 0.411765 1
0.313725 0.623529 0.411765 1
0.313725 0.623529 0.411765 1
0.313725 0.623529 0.411765 1
0.313725 0.623529 0.411765 1
0.313725 0.623529 0.411765 1
0.313725 0.623529 0.411765 1
0.313725 0.623529 0.411765 1
0.313725 0.623529 0.411765 1
0.313725 0.623529 0.411765 1
0.313725 0.623529 0.411765 1
0.313725 0.623529 0.411765 1
0.313725 0.623529 0.411765 1
0.313725 0.623529 0.411765 1
0.313725 0.623529 0.411765 1
0.313725 0.623529 0.411765 1
0.313725 0.623529 0.411765 1
0.313725 0.623529 0.411765 1
0.313725 0.623529 0.411765 1
0.313725 0.623529 0.411765 1
0.313725 0.623529 0.411765 1
0.313725 0.623529 0.411765 1
0.313725 0.623529 0.411765 1
0.313725 0.623529 0.411765 1
0.313725 0.623529 0.411765 1
0.313725 0.623529 0.411765 1
0.313725 0.623529 0.411765 1
0.313725 0.623529 0.411765 1
0.313725 0.623529 0.411765 1
0.313725 0.623529 0.411765 1
0.313725 0.623529 0.411765 1
0.313725 0.623529 0.411765 1
0.313725 0.623529 0.411765 1
0.313725 0.623529 0.411765 1
0.313725 0.623529 0.411765 1
0.313725 0.623529 0.411765 1
0.313725 0.623529 0.411765 1
0.313725 0.623529 0.411765 1
0.313725 0.623529 0.411765 1
0.313725 0.623529 0.411765 1
0.313725 0.623529 0.411765 1
0.313725 0.623529 0.411765 1
0.313725 0.623529 0.411765 1
0.313725 0.623529 0.411765 1
0.313725 0.623529 0.411765 1
0.313725 0.623529 0.411765 1
0.313725 0.623529 0.411765 1
0.313725 0.623529 0.411765 1
0.313725 0.623529 0.411765 1
0.313725 0.623529 0.411765 1
0.313725 0.623529 0.411765 1
0.313725 0.623529 0.411765 1
0.313725 0.623529 0.411765 1
0.313725 0.623529 0.411765 1
0.313725 0.623529 0.411765 1
0.313725 0.623529 0.411765 1
0.313725 0.623529 0.411765 1
0.313725 0.623529 0.411765 1
0.313725 0.623529 0.411765 1
0.313725 0.623529 0.411765 1
0.313725 0.623529 0.411765 1
0.313725 0.623529 0.411765 1
0.313725 0.623529 0.411765 1
0.313725 0.623529 0.411765 1
0.313725 0.623529 0.411765 1
0.313725 0.623529 0.411765 1
0.313725 0.623529 0.411765 1
0.313725 0.623529 0.411765 1
0.313725 0.623529 0.411765 1
0.313725 0.623529 0.411765 1
0.313725 0.623529 0.411765 1
0.313725 0.623529 0.411765 1
0.313725 0.623529 0.411765 1
0.313725 0.623529 0.411765 1
0.313725 0.623529 0.411765 1
0.313725 0.623529 0.411765 1
0.313725 0.623529 0.411765 1
0.313725 0.623529 0.411765 1
0.313725 0.623529 0.411765 1
0.313725 0.623529 0.411765 1
0.313725 0.623529 0.411765 1
0.313725 0.623529 0.411765 1
0.313725 0.623529 0.411765 1
0.313725 0.623529 0.411765 1
0.313725 0.623529 0.411765 1
0.313725 0.623529 0.411765 1
0.313725 0.623529 0.411765 1
0.313725 0.623529 0.411765 1
0.313725 0.623529 0.411765 1
0.313725 0.623529 0.411765 1
0.313725 0.623529 0.411765 1
0.313725 0.623529 0.411765 1
0.313725 0.623529 0.411765 1
0.313725 0.623529 0.411765 1
0.313725 0.623529 0.411765 1
0.313725 0.623529 0.411765 1
0.313725 0.623529 0.411765 1
0.313725 0.623529 0.411765 1
0.313725 0.623529 0.411765 1
0.313725 0.623529 0.411765 1
0.313725 0.623529 0.411765 1
0.313725 0.623529 0.411765 1
0.313725 0.623529 0.411765 1
0.313725 0.623529 0.411765 1
0.313725 0.623529 0.411765 1
0.313725 0.623529 0.411765 1
0.313725 0.623529 0.411765 1
0.313725 0.623529 0.411765 1
0.313725 0.623529 0.411765 1
0.313725 0.623529 0.411765 1
0.313725 0.623529 0.411765 1
0.313725 0.623529 0.411765 1
0.313725 0.623529 0.411765 1
0.313725 0.623529 0.411765 1
0.313725 0.623529 0.411765 1
0.313725 0.623529 0.411765 1
0.313725 0.623529 0.411765 1
0.313725 0.623529 0.411765 1
0.313725 0.623529 0.411765 1
0.313725 0.623529 0.411765 1
0.313725 0.623529 0.411765 1
0.313725 0.623529 0.411765 1
0.313725 0.623529 0.411765 1
0.313725 0.623529 0.411765 1
0.313725 0.623529 0.411765 1
0.313725 0.623529 0.411765 1
0.313725 0.623529 0.411765 1
0.313725 0.623529 0.411765 1
0.313725 0.623529 0.411765 1
0.313725 0.623529 0.411765 1
0.313725 0.623529 0.411765 1
0.313725 0.623529 0.411765 1
0.313725 0.623529 0.411765 1
0.313725 0.623529 0.411765 1
0.313725 0.623529 0.411765 1
0.313725 0.623529 0.411765 1
0.313725 0.623529 0.411765 1
0.313725 0.623529 0.411765 1
0.313725 0.623529 0.411765 1
0.313725 0.623529 0.411765 1
0.313725 0.623529 0.411765 1
0.313725 0.623529 0.411765 1
0.313725 0.623529 0.411765 1
0.313725 0.623529 0.411765 1
0.313725 0.623529 0.411765 1
0.313725 0.623529 0.411765 1
0.313725 0.623529 0.411765 1
0.313725 0.623529 0.411765 1
0.313725 0.623529 0.411765 1
0.313725 0.623529 0.411765 1
0.313725 0.623529 0.411765 1
0.313725 0.623529 0.411765 1
0.313725 0.623529 0.411765 1
0.313725 0.623529 0.411765 1
0.313725 0.623529 0.411765 1
0.313725 0.623529 0.411765 1
0.313725 0.623529 0.411765 1
0.313725 0.623529 0.411765 1
0.313725 0.623529 0.411765 1
0.313725 0.623529 0.411765 1
0.313725 0.623529 0.411765 1
0.313725 0.623529 0.411765 1
0.313725 0.623529 0.411765 1
0.313725 0.623529 0.411765 1
0.313725 0.623529 0.411765 1
0.313725 0.623529 0.411765 1
0.313725 0.623529 0.411765 1
0.313725 0.623529 0.411765 1
0.313725 0.623529 0.411765 1
0.313725 0.623529 0.411765 1
0.313725 0.623529 0.411765 1
0.313725 0.623529 0.411765 1
0.313725 0.623529 0.411765 1
0.313725 0.623529 0.411765 1
0.313725 0.623529 0.411765 1
0.313725 0.623529 0.411765 1
0.313725 0.623529 0.411765 1
0.313725 0.623529 0.411765 1
0.313725 0.623529 0.411765 1
0.313725 0.623529 0.411765 1
0.313725 0.623529 0.411765 1
0.313725 0.623529 0.411765 1
0.313725 0.623529 0.411765 1
0.313725 0.623529 0.411765 1
0.313725 0.623529 0.411765 1
0.313725 0.623529 0.411765 1
0.313725 0.623529 0.411765 1
0.313725 0.623529 0.411765 1
0.313725 0.623529 0.411765 1
0.313725 0.623529 0.411765 1
0.313725 0.623529 0.411765 1
0.313725 0.623529 0.411765 1
0.313725 0.623529 0.411765 1
0.313725 0.623529 0.411765 1
0.313725 0.623529 0.411765 1
0.313725 0.623529 0.411765 1
0.313725 0.623529 0.411765 1
0.313725 0.623529 0.411765 1
0.313725 0.623529 0.411765 1
0.313725 0.623529 0.411765 1
0.313725 0.623529 0.411765 1
0.313725 0.623529 0.411765 1

