# vtk DataFile Version 3.0
Gocad TSurf to VTK
ASCII
DATASET POLYDATA
POINTS 176 float
21573350.000 4587230.000 135.000
21573450.000 4587240.000 200.000
21573475.000 4587430.000 190.000
21573525.000 4587435.000 222.500
21573450.000 4587427.500 135.000
21573375.000 4587045.000 177.500
21573600.000 4587060.000 233.750
21573225.000 4587030.000 80.000
21573300.000 4587225.000 25.000
21573300.000 4586850.000 155.000
21573600.000 4586870.000 230.000
21573100.000 4586830.000 25.000
21573150.000 4587022.500 -85.000
21573275.000 4586677.500 142.500
21573125.000 4586662.500 45.000
21573375.000 4586695.000 177.500
21573450.000 4586540.000 200.000
21573600.000 4586710.000 233.750
21573650.000 4586717.500 282.500
21573600.000 4586550.000 237.500
21573800.000 4586890.000 385.000
21573800.000 4586732.500 398.750
21573625.000 4587062.500 256.250
21573775.000 4587077.500 372.500
21573600.000 4587062.500 240.000
21573600.000 4587255.000 250.000
21573600.000 4587250.000 237.500
21573600.000 4587440.000 241.250
21573600.000 4587630.000 245.000
21573600.000 4587447.500 260.000
21573600.000 4587640.000 270.000
21573675.000 4587447.500 308.750
21573650.000 4587255.000 282.500
21573700.000 4587640.000 335.000
21573725.000 4587452.500 347.500
21573750.000 4587265.000 360.000
21573725.000 4587452.500 347.500
21573750.000 4587265.000 360.000
21573775.000 4587077.500 372.500
21573700.000 4586565.000 335.000
21573800.000 4586652.281 405.753
21573785.094 4586573.508 400.949
21573762.031 4586451.594 393.515
21573750.000 4586412.500 387.500
21573754.719 4586412.969 391.159
21573600.000 4586390.000 241.250
21573600.000 4586230.000 245.000
21573752.938 4586403.539 390.584
21573525.000 4586385.000 222.500
21573225.000 4586332.500 117.500
21573250.000 4586505.000 130.000
21573200.000 4586160.000 105.000
21573175.000 4586327.500 85.000
21573550.000 4586075.000 225.000
21573250.000 4586022.500 120.000
21573625.000 4586090.000 273.750
21573650.000 4585950.000 302.500
21573727.984 4586105.445 374.162
21573718.453 4585996.547 368.139
21573731.172 4586141.922 376.179
21573740.734 4586251.109 382.218
21573715.234 4585959.789 366.106
21573705.766 4585851.492 360.117
21573702.484 4585814.125 358.050
21573675.000 4585810.000 331.250
21573701.906 4585807.555 357.686
21573500.000 4585920.000 205.000
21573450.000 4585765.000 185.000
21573300.000 4585885.000 135.000
21573688.781 4585732.813 347.101
21573670.719 4585681.133 339.498
21573400.000 4585610.000 165.000
21573664.328 4585662.867 336.811
21573350.000 4585747.500 150.000
21572975.000 4585672.500 -11.250
21573050.000 4585835.000 27.500
21572900.000 4585510.000 -50.000
21572900.000 4585660.000 -47.500
21573350.000 4585265.000 201.250
21572975.000 4585190.000 40.000
21573504.125 4585295.828 301.430
21573417.250 4585053.141 291.205
21573534.219 4585379.906 304.973
21573570.828 4585482.188 309.282
21573374.969 4584934.992 286.227
21573300.000 4584920.000 237.500
21573312.156 4584759.523 278.834
21573050.000 4584870.000 130.000
21573252.656 4584593.281 271.830
21572900.000 4585165.000 17.500
21572900.000 4584820.000 85.000
21572600.000 4584750.000 -25.000
21573125.000 4584550.000 220.000
21573243.844 4584573.773 271.105
21572900.000 4584475.000 152.500
21572750.000 4584440.000 97.500
21573172.313 4584348.164 276.766
21573141.172 4584278.039 279.117
21573238.328 4584561.508 270.650
21572900.000 4584130.000 220.000
21573105.938 4584198.641 281.779
21572450.000 4584320.000 86.250
21572400.000 4584670.000 -32.500
21572500.000 4583970.000 205.000
21572375.000 4584267.500 37.500
21572850.000 4583962.500 228.750
21572550.000 4583842.500 217.500
21573044.188 4584027.234 287.007
21573042.297 4584021.953 287.168
21573052.219 4584049.539 286.327
21573027.250 4583963.969 290.998
21572950.000 4583845.000 282.500
21572800.000 4583795.000 237.500
21572825.000 4583652.500 268.750
21572600.000 4583715.000 230.000
21572750.000 4583627.500 246.250
21572475.000 4583790.000 168.750
21572550.000 4583680.000 197.500
21572400.000 4583900.000 140.000
21572475.000 4583787.500 168.750
21572450.000 4583777.500 150.000
21572500.000 4583655.000 160.000
21572400.000 4583765.000 130.000
21572200.000 4583840.000 -25.000
21572250.000 4583720.000 6.250
21572225.000 4584222.500 -86.250
21572075.000 4584190.000 -112.500
21571950.000 4584540.000 -200.000
21572250.000 4584605.000 -147.500
21571825.000 4584890.000 -287.500
21572275.000 4584987.500 -208.750
21572350.000 4584635.000 -65.000
21571700.000 4585240.000 -375.000
21572300.000 4585370.000 -270.000
21572325.000 4585002.500 -167.500
21571875.000 4585440.000 -326.250
21572325.000 4585537.500 -247.500
21572775.000 4585642.500 -82.500
21572050.000 4585640.000 -277.500
21572350.000 4585705.000 -225.000
21572650.000 4585775.000 -115.000
21572225.000 4585840.000 -228.750
21572375.000 4585872.500 -202.500
21572525.000 4585907.500 -147.500
21572400.000 4586040.000 -180.000
21572900.000 4586110.000 -40.000
21572900.000 4585960.000 -42.500
21572550.000 4586235.000 -183.750
21572925.000 4586287.500 -78.750
21572950.000 4586290.000 -23.750
21572700.000 4586430.000 -187.500
21572950.000 4586465.000 -117.500
21572850.000 4586625.000 -191.250
21572975.000 4586642.500 -156.250
21573000.000 4586470.000 -7.500
21573000.000 4586820.000 -195.000
21573050.000 4586650.000 8.750
21573150.000 4586495.000 65.000
21573125.000 4585997.500 66.250
21572900.000 4585810.000 -45.000
21572450.000 4585060.000 -147.500
21572350.000 4585020.000 -151.250
21572400.000 4583630.000 120.000
21572300.000 4583600.000 37.500
21572550.000 4583532.500 170.000
21572550.000 4583675.000 197.500
21572400.000 4583495.000 110.000
21572600.000 4583410.000 180.000
21572625.000 4583562.500 226.250
21572400.000 4583360.000 100.000
21572350.000 4583480.000 68.750
21572700.000 4583450.000 255.000
21572625.000 4583570.000 226.250
21572700.000 4583460.000 255.000
21572650.000 4583587.500 242.500
21573246.641 4584579.953 271.335

POLYGONS 284 1136
3 64 69 65
3 141 139 142
3 40 39 41
3 11 14 13
3 148 145 149
3 157 52 49
3 28 27 29
3 45 46 43
3 23 20 38
3 67 71 70
3 5 10 6
3 55 58 57
3 136 137 140
3 75 73 68
3 89 91 90
3 169 167 166
3 7 9 5
3 145 144 143
3 126 123 125
3 4 0 2
3 111 112 113
3 128 104 131
3 115 173 113
3 145 146 158
3 105 112 111
3 25 24 22
3 43 46 47
3 93 92 98
3 156 157 14
3 13 14 50
3 127 126 125
3 150 148 151
3 83 71 82
3 167 171 168
3 51 145 158
3 31 35 34
3 61 56 62
3 68 73 67
3 100 99 109
3 164 168 165
3 96 94 97
3 39 42 41
3 34 35 37
3 9 13 15
3 9 10 5
3 10 9 15
3 162 121 122
3 128 127 125
3 102 95 91
3 32 23 35
3 145 51 149
3 74 71 73
3 75 159 74
3 90 95 94
3 78 79 85
3 10 17 18
3 134 102 161
3 137 76 77
3 104 101 131
3 17 15 16
3 142 139 143
3 131 101 102
3 22 23 32
3 128 131 130
3 105 106 112
3 81 78 84
3 30 29 31
3 87 93 175
3 64 67 69
3 88 87 175
3 28 3 27
3 14 157 50
3 74 73 75
3 114 174 115
3 55 56 61
3 50 48 16
3 103 106 105
3 112 115 113
3 164 167 168
3 118 116 106
3 21 18 39
3 66 64 56
3 139 136 140
3 159 140 137
3 154 52 157
3 106 114 112
3 6 10 24
3 39 43 42
3 144 145 147
3 118 123 122
3 166 164 162
3 159 137 77
3 24 10 22
3 71 80 82
3 89 160 91
3 122 124 162
3 53 54 66
3 144 142 143
3 154 157 156
3 46 51 53
3 117 172 174
3 122 121 120
3 46 55 57
3 66 56 53
3 13 16 15
3 118 119 116
3 145 143 146
3 79 87 85
3 105 110 108
3 85 87 88
3 119 117 116
3 19 39 18
3 130 129 128
3 76 71 74
3 42 43 44
3 103 99 101
3 87 92 93
3 77 76 74
3 20 18 21
3 11 156 14
3 132 133 135
3 33 30 31
3 121 165 119
3 76 89 79
3 90 91 95
3 118 103 104
3 136 133 137
3 125 104 128
3 146 159 75
3 149 52 154
3 0 1 2
3 71 72 70
3 52 51 49
3 118 120 119
3 5 6 1
3 174 173 115
3 155 152 153
3 25 26 24
3 165 117 119
3 144 141 142
3 92 94 96
3 10 20 22
3 78 85 84
3 46 53 55
3 105 111 110
3 8 7 0
3 12 7 8
3 116 117 114
3 8 0 4
3 135 133 136
3 168 172 165
3 56 64 63
3 133 134 161
3 10 15 17
3 133 161 160
3 72 71 83
3 49 46 48
3 138 139 141
3 92 96 98
3 54 68 66
3 78 81 80
3 102 91 161
3 11 9 7
3 29 25 32
3 76 160 89
3 99 103 105
3 104 103 101
3 152 151 153
3 89 87 79
3 125 118 104
3 147 145 148
3 158 68 54
3 71 76 78
3 114 117 174
3 69 67 70
3 20 10 18
3 94 99 97
3 95 99 94
3 9 11 13
3 76 79 78
3 75 68 158
3 1 26 3
3 99 100 97
3 103 118 106
3 67 64 66
3 2 1 3
3 7 5 0
3 29 27 25
3 90 92 87
3 120 121 119
3 49 48 50
3 105 108 107
3 99 105 107
3 51 54 53
3 121 164 165
3 133 132 130
3 132 129 130
3 150 151 152
3 135 136 138
3 166 167 164
3 46 59 60
3 3 26 27
3 48 46 45
3 149 51 52
3 155 11 12
3 51 46 49
3 0 5 1
3 129 127 128
3 45 43 39
3 106 116 114
3 94 92 90
3 84 85 86
3 36 34 37
3 47 46 60
3 147 148 150
3 158 146 75
3 161 91 160
3 51 158 54
3 62 56 63
3 76 133 160
3 124 163 162
3 22 20 23
3 133 130 134
3 99 107 109
3 19 45 39
3 17 16 19
3 85 88 86
3 171 173 168
3 31 29 32
3 146 140 159
3 19 16 48
3 162 164 121
3 30 28 29
3 168 173 172
3 46 57 59
3 118 122 120
3 39 40 21
3 156 153 154
3 12 11 7
3 37 35 38
3 53 56 55
3 50 16 13
3 170 169 166
3 123 118 125
3 172 173 174
3 131 102 134
3 146 143 140
3 101 95 102
3 28 4 2
3 163 170 166
3 58 55 61
3 35 23 38
3 32 25 22
3 33 31 34
3 19 48 45
3 71 78 80
3 32 35 31
3 112 114 115
3 123 124 122
3 90 87 89
3 130 131 134
3 26 6 24
3 133 76 137
3 27 26 25
3 151 148 149
3 1 6 26
3 153 151 154
3 165 172 117
3 101 99 95
3 64 65 63
3 73 71 67
3 11 155 156
3 162 163 166
3 44 43 47
3 155 153 156
3 50 157 49
3 138 136 139
3 33 34 36
3 139 140 143
3 66 68 67
3 159 77 74
3 154 151 149
3 17 19 18
3 28 2 3

POINT_DATA 176
COLOR_SCALARS GocadColor 4
0.392157 0.584314 0.929412 1
0.392157 0.584314 0.929412 1
0.392157 0.584314 0.929412 1
0.392157 0.584314 0.929412 1
0.392157 0.584314 0.929412 1
0.392157 0.584314 0.929412 1
0.392157 0.584314 0.929412 1
0.392157 0.584314 0.929412 1
0.392157 0.584314 0.929412 1
0.392157 0.584314 0.929412 1
0.392157 0.584314 0.929412 1
0.392157 0.584314 0.929412 1
0.392157 0.584314 0.929412 1
0.392157 0.584314 0.929412 1
0.392157 0.584314 0.929412 1
0.392157 0.584314 0.929412 1
0.392157 0.584314 0.929412 1
0.392157 0.584314 0.929412 1
0.392157 0.584314 0.929412 1
0.392157 0.584314 0.929412 1
0.392157 0.584314 0.929412 1
0.392157 0.584314 0.929412 1
0.392157 0.584314 0.929412 1
0.392157 0.584314 0.929412 1
0.392157 0.584314 0.929412 1
0.392157 0.584314 0.929412 1
0.392157 0.584314 0.929412 1
0.392157 0.584314 0.929412 1
0.392157 0.584314 0.929412 1
0.392157 0.584314 0.929412 1
0.392157 0.584314 0.929412 1
0.392157 0.584314 0.929412 1
0.392157 0.584314 0.929412 1
0.392157 0.584314 0.929412 1
0.392157 0.584314 0.929412 1
0.392157 0.584314 0.929412 1
0.392157 0.584314 0.929412 1
0.392157 0.584314 0.929412 1
0.392157 0.584314 0.929412 1
0.392157 0.584314 0.929412 1
0.392157 0.584314 0.929412 1
0.392157 0.584314 0.929412 1
0.392157 0.584314 0.929412 1
0.392157 0.584314 0.929412 1
0.392157 0.584314 0.929412 1
0.392157 0.584314 0.929412 1
0.392157 0.584314 0.929412 1
0.392157 0.584314 0.929412 1
0.392157 0.584314 0.929412 1
0.392157 0.584314 0.929412 1
0.392157 0.584314 0.929412 1
0.392157 0.584314 0.929412 1
0.392157 0.584314 0.929412 1
0.392157 0.584314 0.929412 1
0.392157 0.584314 0.929412 1
0.392157 0.584314 0.929412 1
0.392157 0.584314 0.929412 1
0.392157 0.584314 0.929412 1
0.392157 0.584314 0.929412 1
0.392157 0.584314 0.929412 1
0.392157 0.584314 0.929412 1
0.392157 0.584314 0.929412 1
0.392157 0.584314 0.929412 1
0.392157 0.584314 0.929412 1
0.392157 0.584314 0.929412 1
0.392157 0.584314 0.929412 1
0.392157 0.584314 0.929412 1
0.392157 0.584314 0.929412 1
0.392157 0.584314 0.929412 1
0.392157 0.584314 0.929412 1
0.392157 0.584314 0.929412 1
0.392157 0.584314 0.929412 1
0.392157 0.584314 0.929412 1
0.392157 0.584314 0.929412 1
0.392157 0.584314 0.929412 1
0.392157 0.584314 0.929412 1
0.392157 0.584314 0.929412 1
0.392157 0.584314 0.929412 1
0.392157 0.584314 0.929412 1
0.392157 0.584314 0.929412 1
0.392157 0.584314 0.929412 1
0.392157 0.584314 0.929412 1
0.392157 0.584314 0.929412 1
0.392157 0.584314 0.929412 1
0.392157 0.584314 0.929412 1
0.392157 0.584314 0.929412 1
0.392157 0.584314 0.929412 1
0.392157 0.584314 0.929412 1
0.392157 0.584314 0.929412 1
0.392157 0.584314 0.929412 1
0.392157 0.584314 0.929412 1
0.392157 0.584314 0.929412 1
0.392157 0.584314 0.929412 1
0.392157 0.584314 0.929412 1
0.392157 0.584314 0.929412 1
0.392157 0.584314 0.929412 1
0.392157 0.584314 0.929412 1
0.392157 0.584314 0.929412 1
0.392157 0.584314 0.929412 1
0.392157 0.584314 0.929412 1
0.392157 0.584314 0.929412 1
0.392157 0.584314 0.929412 1
0.392157 0.584314 0.929412 1
0.392157 0.584314 0.929412 1
0.392157 0.584314 0.929412 1
0.392157 0.584314 0.929412 1
0.392157 0.584314 0.929412 1
0.392157 0.584314 0.929412 1
0.392157 0.584314 0.929412 1
0.392157 0.584314 0.929412 1
0.392157 0.584314 0.929412 1
0.392157 0.584314 0.929412 1
0.392157 0.584314 0.929412 1
0.392157 0.584314 0.929412 1
0.392157 0.584314 0.929412 1
0.392157 0.584314 0.929412 1
0.392157 0.584314 0.929412 1
0.392157 0.584314 0.929412 1
0.392157 0.584314 0.929412 1
0.392157 0.584314 0.929412 1
0.392157 0.584314 0.929412 1
0.392157 0.584314 0.929412 1
0.392157 0.584314 0.929412 1
0.392157 0.584314 0.929412 1
0.392157 0.584314 0.929412 1
0.392157 0.584314 0.929412 1
0.392157 0.584314 0.929412 1
0.392157 0.584314 0.929412 1
0.392157 0.584314 0.929412 1
0.392157 0.584314 0.929412 1
0.392157 0.584314 0.929412 1
0.392157 0.584314 0.929412 1
0.392157 0.584314 0.929412 1
0.392157 0.584314 0.929412 1
0.392157 0.584314 0.929412 1
0.392157 0.584314 0.929412 1
0.392157 0.584314 0.929412 1
0.392157 0.584314 0.929412 1
0.392157 0.584314 0.929412 1
0.392157 0.584314 0.929412 1
0.392157 0.584314 0.929412 1
0.392157 0.584314 0.929412 1
0.392157 0.584314 0.929412 1
0.392157 0.584314 0.929412 1
0.392157 0.584314 0.929412 1
0.392157 0.584314 0.929412 1
0.392157 0.584314 0.929412 1
0.392157 0.584314 0.929412 1
0.392157 0.584314 0.929412 1
0.392157 0.584314 0.929412 1
0.392157 0.584314 0.929412 1
0.392157 0.584314 0.929412 1
0.392157 0.584314 0.929412 1
0.392157 0.584314 0.929412 1
0.392157 0.584314 0.929412 1
0.392157 0.584314 0.929412 1
0.392157 0.584314 0.929412 1
0.392157 0.584314 0.929412 1
0.392157 0.584314 0.929412 1
0.392157 0.584314 0.929412 1
0.392157 0.584314 0.929412 1
0.392157 0.584314 0.929412 1
0.392157 0.584314 0.929412 1
0.392157 0.584314 0.929412 1
0.392157 0.584314 0.929412 1
0.392157 0.584314 0.929412 1
0.392157 0.584314 0.929412 1
0.392157 0.584314 0.929412 1
0.392157 0.584314 0.929412 1
0.392157 0.584314 0.929412 1
0.392157 0.584314 0.929412 1
0.392157 0.584314 0.929412 1
0.392157 0.584314 0.929412 1
0.392157 0.584314 0.929412 1
0.392157 0.584314 0.929412 1
0.392157 0.584314 0.929412 1

