# vtk DataFile Version 3.0
Gocad TSurf to VTK
ASCII
DATASET POLYDATA
POINTS 93 float
21565200.000 4551845.000 387.500
21565150.000 4551797.500 378.750
21565300.000 4551816.250 320.625
21565300.000 4551692.500 236.250
21565250.000 4551892.500 396.250
21565200.000 4551845.000 387.500
21565300.000 4551940.000 405.000
21565737.500 4551951.250 145.000
21565362.500 4551658.750 175.000
21565800.000 4552000.000 140.000
21565800.000 4551917.500 97.500
21565800.000 4551835.000 55.000
21565887.500 4551976.250 57.500
21565875.000 4551932.500 45.000
21565900.000 4552020.000 70.000
21565862.500 4551888.750 32.500
21565850.000 4551845.000 20.000
21565837.500 4551801.250 7.500
21565825.000 4551757.500 -5.000
21565812.500 4551713.750 -17.500
21565800.000 4551670.000 -30.000
21565300.000 4551610.000 180.000
21565375.000 4551490.000 127.500
21565287.500 4551545.000 178.750
21565775.000 4551602.500 -30.000
21565750.000 4551535.000 -30.000
21565450.000 4551370.000 75.000
21565725.000 4551467.500 -30.000
21565700.000 4551400.000 -30.000
21565487.500 4551310.000 48.750
21565212.500 4551155.000 171.250
21565675.000 4551332.500 -30.000
21565650.000 4551265.000 -30.000
21565625.000 4551197.500 -30.000
21565600.000 4551130.000 -30.000
21565200.000 4551090.000 170.000
21565275.000 4551045.000 120.000
21565187.500 4551062.500 170.000
21565587.500 4551102.500 -30.000
21565575.000 4551075.000 -30.000
21565312.500 4551022.500 95.000
21565562.500 4551047.500 -30.000
21565550.000 4551020.000 -30.000
21565537.500 4550992.500 -30.000
21565425.000 4550955.000 20.000
21565112.500 4550897.500 170.000
21565525.000 4550965.000 -30.000
21565512.500 4550937.500 -30.000
21565500.000 4550910.000 -30.000
21565100.000 4550870.000 170.000
21565462.500 4550877.500 5.000
21565137.500 4550787.500 200.000
21565100.000 4550840.000 186.875
21565425.000 4550845.000 40.000
21565387.500 4550812.500 75.000
21565350.000 4550780.000 110.000
21565150.000 4550760.000 210.000
21565312.500 4550747.500 145.000
21565275.000 4550715.000 180.000
21565237.500 4550682.500 215.000
21565187.500 4550677.500 240.000
21565100.000 4550660.000 288.125
21565200.000 4550650.000 250.000
21565100.000 4550630.000 305.000
21565000.000 4550677.500 320.000
21564950.000 4550701.250 327.500
21564800.000 4550580.000 445.000
21564787.500 4550610.000 435.000
21564775.000 4550640.000 425.000
21564787.500 4550610.000 435.000
21564725.000 4550760.000 385.000
21564700.000 4550820.000 365.000
21564712.500 4550790.000 375.000
21564700.000 4550877.500 371.250
21564700.000 4550992.500 383.750
21564700.000 4550877.500 371.250
21564900.000 4550960.000 280.000
21564700.000 4551021.250 386.875
21564700.000 4551050.000 390.000
21565162.500 4551148.750 190.625
21564750.000 4551177.500 376.250
21565125.000 4551207.500 211.250
21564800.000 4551305.000 362.500
21565050.000 4551325.000 252.500
21564850.000 4551432.500 348.750
21564975.000 4551442.500 293.750
21564875.000 4551496.250 341.875
21564900.000 4551560.000 335.000
21564875.000 4551496.250 341.875
21564950.000 4551607.500 343.750
21564950.000 4551607.500 343.750
21565000.000 4551655.000 352.500
21565100.000 4551750.000 370.000

POLYGONS 129 516
3 74 73 45
3 13 12 10
3 56 51 52
3 6 4 2
3 66 63 64
3 67 64 68
3 25 24 22
3 21 8 3
3 43 42 40
3 26 22 23
3 42 41 40
3 35 37 36
3 13 10 15
3 64 65 68
3 24 20 22
3 65 64 61
3 67 68 69
3 90 89 91
3 21 20 8
3 35 78 76
3 21 89 87
3 2 1 3
3 73 71 45
3 1 92 3
3 52 61 56
3 44 43 40
3 91 89 3
3 86 84 85
3 54 53 51
3 9 7 10
3 11 7 8
3 12 9 10
3 76 74 45
3 54 51 55
3 55 51 56
3 77 74 76
3 18 17 11
3 5 1 0
3 87 89 90
3 52 49 65
3 35 30 79
3 9 6 7
3 14 9 12
3 67 66 64
3 58 57 56
3 7 6 2
3 4 0 2
3 91 3 92
3 41 39 40
3 61 60 56
3 44 40 45
3 47 46 44
3 78 77 76
3 78 79 80
3 49 48 44
3 46 43 44
3 73 74 75
3 20 19 11
3 32 31 29
3 78 80 82
3 20 21 22
3 30 35 29
3 63 61 64
3 45 40 37
3 19 18 11
3 39 36 40
3 16 11 17
3 83 81 30
3 73 75 71
3 50 49 51
3 23 83 30
3 28 27 26
3 81 79 30
3 7 2 8
3 11 10 7
3 78 35 79
3 28 26 29
3 63 62 61
3 60 59 56
3 33 32 29
3 5 0 4
3 21 23 22
3 49 71 65
3 16 15 10
3 87 86 85
3 48 47 44
3 38 34 36
3 62 59 60
3 89 21 3
3 76 45 37
3 66 67 69
3 86 88 84
3 2 3 8
3 70 71 72
3 29 26 30
3 34 33 29
3 55 56 57
3 80 83 82
3 27 25 26
3 8 20 11
3 25 22 26
3 34 35 36
3 48 49 50
3 71 49 45
3 49 52 51
3 70 65 71
3 53 50 51
3 83 80 81
3 81 80 79
3 23 21 85
3 11 16 10
3 83 84 82
3 65 61 52
3 62 60 61
3 84 78 82
3 0 1 2
3 39 38 36
3 68 65 70
3 26 23 30
3 35 34 29
3 59 58 56
3 45 49 44
3 21 87 85
3 85 84 83
3 86 87 88
3 40 36 37
3 37 35 76
3 85 83 23
3 31 28 29

POINT_DATA 93
COLOR_SCALARS GocadColor 4
0.819608 0.698116 0.549615 1
0.819608 0.698116 0.549615 1
0.819608 0.698116 0.549615 1
0.819608 0.698116 0.549615 1
0.819608 0.698116 0.549615 1
0.819608 0.698116 0.549615 1
0.819608 0.698116 0.549615 1
0.819608 0.698116 0.549615 1
0.819608 0.698116 0.549615 1
0.819608 0.698116 0.549615 1
0.819608 0.698116 0.549615 1
0.819608 0.698116 0.549615 1
0.819608 0.698116 0.549615 1
0.819608 0.698116 0.549615 1
0.819608 0.698116 0.549615 1
0.819608 0.698116 0.549615 1
0.819608 0.698116 0.549615 1
0.819608 0.698116 0.549615 1
0.819608 0.698116 0.549615 1
0.819608 0.698116 0.549615 1
0.819608 0.698116 0.549615 1
0.819608 0.698116 0.549615 1
0.819608 0.698116 0.549615 1
0.819608 0.698116 0.549615 1
0.819608 0.698116 0.549615 1
0.819608 0.698116 0.549615 1
0.819608 0.698116 0.549615 1
0.819608 0.698116 0.549615 1
0.819608 0.698116 0.549615 1
0.819608 0.698116 0.549615 1
0.819608 0.698116 0.549615 1
0.819608 0.698116 0.549615 1
0.819608 0.698116 0.549615 1
0.819608 0.698116 0.549615 1
0.819608 0.698116 0.549615 1
0.819608 0.698116 0.549615 1
0.819608 0.698116 0.549615 1
0.819608 0.698116 0.549615 1
0.819608 0.698116 0.549615 1
0.819608 0.698116 0.549615 1
0.819608 0.698116 0.549615 1
0.819608 0.698116 0.549615 1
0.819608 0.698116 0.549615 1
0.819608 0.698116 0.549615 1
0.819608 0.698116 0.549615 1
0.819608 0.698116 0.549615 1
0.819608 0.698116 0.549615 1
0.819608 0.698116 0.549615 1
0.819608 0.698116 0.549615 1
0.819608 0.698116 0.549615 1
0.819608 0.698116 0.549615 1
0.819608 0.698116 0.549615 1
0.819608 0.698116 0.549615 1
0.819608 0.698116 0.549615 1
0.819608 0.698116 0.549615 1
0.819608 0.698116 0.549615 1
0.819608 0.698116 0.549615 1
0.819608 0.698116 0.549615 1
0.819608 0.698116 0.549615 1
0.819608 0.698116 0.549615 1
0.819608 0.698116 0.549615 1
0.819608 0.698116 0.549615 1
0.819608 0.698116 0.549615 1
0.819608 0.698116 0.549615 1
0.819608 0.698116 0.549615 1
0.819608 0.698116 0.549615 1
0.819608 0.698116 0.549615 1
0.819608 0.698116 0.549615 1
0.819608 0.698116 0.549615 1
0.819608 0.698116 0.549615 1
0.819608 0.698116 0.549615 1
0.819608 0.698116 0.549615 1
0.819608 0.698116 0.549615 1
0.819608 0.698116 0.549615 1
0.819608 0.698116 0.549615 1
0.819608 0.698116 0.549615 1
0.819608 0.698116 0.549615 1
0.819608 0.698116 0.549615 1
0.819608 0.698116 0.549615 1
0.819608 0.698116 0.549615 1
0.819608 0.698116 0.549615 1
0.819608 0.698116 0.549615 1
0.819608 0.698116 0.549615 1
0.819608 0.698116 0.549615 1
0.819608 0.698116 0.549615 1
0.819608 0.698116 0.549615 1
0.819608 0.698116 0.549615 1
0.819608 0.698116 0.549615 1
0.819608 0.698116 0.549615 1
0.819608 0.698116 0.549615 1
0.819608 0.698116 0.549615 1
0.819608 0.698116 0.549615 1
0.819608 0.698116 0.549615 1

