# vtk DataFile Version 3.0
Gocad TSurf to VTK
ASCII
DATASET POLYDATA
POINTS 196 float
21557575.000 4567767.500 -1633.750
21557475.000 4567817.500 -1665.000
21557900.000 4568240.000 -1710.000
21557325.000 4568035.000 -1635.000
21558100.000 4567920.000 -1625.000
21557250.000 4567295.000 -1557.500
21557050.000 4567395.000 -1620.000
21557725.000 4567527.500 -1570.000
21557350.000 4567135.000 -1515.000
21556925.000 4566822.500 -1481.250
21556975.000 4566742.500 -1460.000
21556625.000 4566972.500 -1575.000
21556600.000 4566350.000 -1405.000
21556575.000 4567045.000 -1565.000
21556950.000 4567540.000 -1600.000
21556200.000 4566550.000 -1530.000
21556125.000 4567225.000 -1565.000
21556250.000 4566420.000 -1495.000
21556550.000 4566270.000 -1401.250
21556150.000 4566450.000 -1522.500
21556050.000 4566487.500 -1543.750
21556100.000 4566350.000 -1515.000
21556300.000 4566290.000 -1460.000
21556050.000 4566250.000 -1507.500
21556500.000 4566190.000 -1397.500
21556350.000 4566160.000 -1425.000
21556450.000 4566110.000 -1393.750
21556000.000 4566150.000 -1500.000
21555750.000 4566362.500 -1571.250
21556400.000 4566030.000 -1390.000
21555975.000 4565847.500 -1403.750
21555675.000 4565937.500 -1486.250
21555600.000 4566300.000 -1585.000
21555550.000 4565665.000 -1417.500
21555350.000 4565725.000 -1472.500
21555375.000 4566050.000 -1550.000
21555125.000 4565482.500 -1431.250
21555025.000 4565512.500 -1458.750
21555150.000 4565800.000 -1515.000
21554700.000 4565300.000 -1445.000
21554925.000 4565550.000 -1480.000
21554850.000 4565585.000 -1476.250
21555000.000 4565870.000 -1507.500
21555150.000 4566155.000 -1538.750
21554625.000 4565757.500 -1540.000
21554400.000 4565530.000 -1530.000
21554850.000 4565985.000 -1550.000
21554550.000 4566085.000 -1475.000
21555075.000 4566212.500 -1560.000
21554625.000 4566362.500 -1447.500
21555300.000 4566440.000 -1570.000
21554700.000 4566640.000 -1420.000
21555600.000 4566422.500 -1571.250
21555375.000 4566527.500 -1560.000
21555600.000 4566545.000 -1557.500
21555900.000 4566425.000 -1557.500
21555600.000 4566667.500 -1543.750
21555600.000 4566790.000 -1530.000
21555525.000 4566702.500 -1540.000
21555900.000 4567345.000 -1512.500
21555300.000 4566950.000 -1460.000
21556500.000 4567740.000 -1565.000
21556650.000 4567660.000 -1600.000
21557100.000 4568135.000 -1617.500
21557175.000 4568095.000 -1635.000
21557700.000 4568530.000 -1670.000
21558125.000 4568727.500 -1666.250
21558100.000 4568850.000 -1680.000
21558275.000 4568510.000 -1696.250
21558550.000 4568925.000 -1662.500
21558425.000 4568270.000 -1632.500
21558750.000 4568620.000 -1640.000
21558650.000 4568780.000 -1682.500
21559075.000 4568970.000 -1647.500
21558975.000 4569122.500 -1658.750
21558500.000 4569170.000 -1690.000
21559025.000 4569050.000 -1668.750
21559400.000 4569320.000 -1655.000
21558900.000 4569490.000 -1700.000
21559300.000 4569810.000 -1710.000
21558900.000 4569752.500 -1711.250
21559775.000 4569535.000 -1675.000
21559700.000 4569902.500 -1716.250
21559300.000 4570160.000 -1725.000
21560150.000 4569750.000 -1695.000
21560100.000 4569995.000 -1722.500
21559700.000 4570165.000 -1727.500
21560525.000 4569965.000 -1715.000
21560500.000 4570087.500 -1728.750
21560100.000 4570170.000 -1730.000
21560900.000 4570180.000 -1735.000
21560500.000 4570175.000 -1732.500
21560800.000 4570390.000 -1790.000
21560425.000 4570332.500 -1773.750
21561250.000 4570552.500 -1803.750
21561100.000 4570732.500 -1815.000
21561325.000 4570395.000 -1762.500
21561700.000 4570715.000 -1817.500
21561350.000 4570380.000 -1773.750
21561750.000 4570610.000 -1790.000
21561375.000 4570365.000 -1773.750
21561800.000 4570580.000 -1812.500
21561850.000 4570550.000 -1812.500
21562250.000 4570780.000 -1851.250
21562175.000 4570825.000 -1817.500
21562325.000 4570735.000 -1851.250
21562700.000 4570980.000 -1890.000
21562800.000 4570920.000 -1890.000
21562600.000 4571040.000 -1845.000
21562150.000 4570877.500 -1831.250
21562100.000 4570937.500 -1835.000
21561600.000 4570835.000 -1825.000
21560600.000 4570630.000 -1805.000
21560275.000 4570512.500 -1785.000
21560250.000 4570587.500 -1771.250
21560050.000 4570275.000 -1757.500
21559950.000 4570395.000 -1765.000
21559675.000 4570217.500 -1741.250
21559625.000 4570277.500 -1745.000
21559900.000 4570545.000 -1737.500
21559550.000 4570502.500 -1703.750
21559200.000 4570460.000 -1670.000
21558825.000 4569977.500 -1670.000
21558450.000 4569495.000 -1670.000
21558500.000 4569345.000 -1697.500
21558075.000 4569012.500 -1670.000
21558100.000 4568937.500 -1683.750
21555300.000 4566822.500 -1487.500
21555150.000 4566872.500 -1450.000
21555300.000 4566695.000 -1515.000
21555000.000 4566795.000 -1440.000
21555450.000 4566615.000 -1550.000
21555300.000 4566567.500 -1542.500
21554850.000 4566717.500 -1430.000
21554550.000 4566407.500 -1457.500
21554500.000 4566437.500 -1451.250
21554400.000 4566175.000 -1495.000
21554250.000 4565942.500 -1532.500
21554300.000 4566235.000 -1482.500
21554475.000 4565807.500 -1502.500
21554100.000 4565710.000 -1570.000
21554225.000 4565442.500 -1498.750
21554250.000 4565372.500 -1475.000
21554000.000 4565577.500 -1528.750
21553975.000 4565635.000 -1528.750
21554050.000 4565355.000 -1467.500
21553900.000 4565445.000 -1487.500
21553850.000 4565560.000 -1487.500
21553875.000 4565267.500 -1436.250
21554100.000 4565215.000 -1420.000
21553800.000 4565312.500 -1446.250
21553725.000 4565485.000 -1446.250
21553700.000 4565180.000 -1405.000
21553600.000 4565410.000 -1405.000
21553950.000 4565057.500 -1365.000
21553800.000 4564900.000 -1310.000
21553400.000 4564960.000 -1467.500
21554025.000 4565000.000 -1343.750
21554250.000 4565100.000 -1377.500
21554475.000 4565200.000 -1411.250
21553475.000 4564750.000 -1396.250
21553325.000 4565132.500 -1467.500
21553050.000 4564855.000 -1530.000
21553100.000 4564740.000 -1530.000
21553000.000 4564960.000 -1495.000
21552750.000 4564630.000 -1575.000
21553250.000 4565290.000 -1415.000
21553500.000 4565620.000 -1335.000
21553675.000 4565515.000 -1440.000
21553600.000 4565672.500 -1387.500
21553750.000 4565620.000 -1475.000
21553825.000 4565725.000 -1510.000
21553700.000 4565725.000 -1440.000
21553900.000 4565830.000 -1545.000
21553800.000 4565777.500 -1492.500
21554100.000 4566032.500 -1513.750
21553800.000 4565950.000 -1530.000
21554025.000 4566122.500 -1502.500
21554250.000 4566295.000 -1475.000
21554475.000 4566467.500 -1447.500
21553725.000 4565867.500 -1481.250
21553650.000 4565785.000 -1432.500
21553575.000 4565702.500 -1383.750
21552775.000 4564577.500 -1592.500
21552500.000 4564300.000 -1655.000
21552800.000 4564520.000 -1592.500
21552825.000 4564450.000 -1568.750
21553150.000 4564600.000 -1482.500
21552825.000 4564420.000 -1557.500
21553150.000 4564580.000 -1475.000
21552500.000 4564260.000 -1640.000
21552825.000 4564367.500 -1557.500
21553150.000 4564545.000 -1475.000
21552500.000 4564190.000 -1640.000
21553475.000 4564722.500 -1392.500
21553475.000 4564740.000 -1392.500

POLYGONS 322 1288
3 6 14 1
3 166 167 153
3 144 173 140
3 33 34 31
3 56 58 57
3 89 115 93
3 157 154 149
3 22 17 18
3 3 64 65
3 188 189 192
3 131 129 58
3 108 106 103
3 25 22 24
3 11 12 15
3 28 54 55
3 19 20 15
3 117 83 118
3 62 16 61
3 127 60 57
3 169 182 181
3 112 92 93
3 88 85 89
3 17 21 19
3 54 52 53
3 141 143 140
3 75 74 69
3 119 118 120
3 96 90 94
3 129 132 130
3 49 47 136
3 67 69 66
3 41 45 44
3 36 34 33
3 72 76 73
3 6 9 11
3 141 140 45
3 189 187 195
3 100 98 101
3 171 170 172
3 184 185 186
3 37 40 38
3 57 15 20
3 86 115 89
3 118 83 120
3 161 156 162
3 5 0 7
3 121 83 122
3 40 39 41
3 75 69 67
3 26 25 24
3 127 129 128
3 100 101 102
3 93 113 112
3 157 149 158
3 159 142 45
3 124 78 75
3 184 186 188
3 61 16 59
3 71 72 73
3 10 9 8
3 116 118 119
3 85 82 86
3 44 139 47
3 192 191 188
3 110 97 111
3 142 149 145
3 0 2 4
3 27 32 28
3 55 54 56
3 103 104 108
3 23 27 28
3 183 163 185
3 138 137 175
3 5 9 6
3 174 176 173
3 168 167 169
3 11 13 6
3 70 68 71
3 184 183 185
3 188 186 189
3 191 190 188
3 175 173 176
3 150 153 151
3 86 117 115
3 56 131 58
3 37 38 34
3 34 38 35
3 115 116 113
3 106 107 105
3 44 45 139
3 17 19 15
3 156 160 163
3 124 75 126
3 49 136 134
3 166 161 164
3 151 168 170
3 139 45 140
3 64 63 65
3 65 126 67
3 89 91 88
3 68 69 72
3 35 50 32
3 104 99 109
3 18 17 12
3 91 90 88
3 79 77 78
3 17 15 12
3 10 12 9
3 162 156 163
3 26 29 25
3 151 153 168
3 9 5 8
3 52 32 50
3 80 79 78
3 63 62 61
3 1 5 6
3 64 14 62
3 2 65 66
3 59 57 60
3 187 160 195
3 160 155 195
3 128 129 130
3 43 48 50
3 103 105 102
3 13 14 6
3 123 80 124
3 168 153 167
3 135 178 179
3 47 137 136
3 171 172 174
3 40 41 42
3 19 21 20
3 154 155 152
3 157 155 154
3 122 83 80
3 24 22 18
3 37 39 40
3 175 140 173
3 117 118 116
3 94 92 95
3 85 86 89
3 72 74 76
3 25 27 23
3 33 31 30
3 114 116 119
3 134 135 51
3 142 141 45
3 1 3 2
3 35 43 50
3 143 146 147
3 87 88 90
3 189 195 194
3 53 50 132
3 175 176 177
3 21 23 55
3 170 169 172
3 94 90 92
3 58 127 57
3 147 171 144
3 2 68 70
3 53 132 131
3 174 180 176
3 44 47 46
3 138 175 177
3 161 153 152
3 77 79 81
3 145 146 143
3 109 99 97
3 76 77 73
3 109 110 108
3 123 124 125
3 84 81 82
3 25 29 27
3 101 104 103
3 87 84 85
3 82 79 83
3 56 54 131
3 81 79 82
3 38 43 35
3 122 80 123
3 80 78 124
3 2 66 68
3 82 83 86
3 146 150 151
3 129 127 58
3 3 65 2
3 86 83 117
3 48 49 51
3 41 39 45
3 14 13 62
3 132 129 131
3 97 94 111
3 78 77 74
3 100 90 98
3 78 74 75
3 154 152 148
3 142 145 141
3 164 162 165
3 163 160 187
3 156 155 160
3 11 15 13
3 171 174 173
3 28 52 54
3 184 165 183
3 34 35 31
3 192 189 194
3 159 45 39
3 55 56 20
3 13 15 16
3 191 193 190
3 93 92 91
3 158 149 142
3 115 113 93
3 49 134 51
3 169 167 182
3 42 41 44
3 135 136 138
3 144 171 173
3 170 168 169
3 104 109 108
3 111 94 95
3 172 180 174
3 46 49 48
3 150 152 153
3 65 67 66
3 36 37 34
3 48 51 50
3 74 77 76
3 143 147 144
3 47 139 137
3 109 97 110
3 16 15 57
3 36 39 37
3 54 53 131
3 83 121 120
3 43 46 48
3 103 106 105
3 31 35 32
3 7 0 4
3 148 146 145
3 146 151 147
3 147 170 171
3 30 31 27
3 158 142 159
3 169 181 172
3 42 44 46
3 135 138 178
3 22 23 21
3 3 14 64
3 40 42 38
3 149 148 145
3 188 190 184
3 172 181 180
3 0 1 2
3 152 155 156
3 186 187 189
3 84 82 85
3 156 161 152
3 68 72 71
3 148 150 146
3 143 144 140
3 98 99 101
3 68 66 69
3 43 42 46
3 83 79 80
3 0 5 1
3 117 116 115
3 55 23 28
3 62 13 16
3 50 51 133
3 8 5 7
3 98 96 99
3 126 75 67
3 9 12 11
3 149 154 148
3 135 179 51
3 145 143 141
3 92 90 91
3 101 99 104
3 64 62 63
3 16 57 59
3 99 96 97
3 164 161 162
3 22 25 23
3 20 56 57
3 130 132 133
3 102 101 103
3 138 177 178
3 20 21 55
3 95 92 112
3 151 170 147
3 165 162 183
3 195 155 194
3 98 90 96
3 87 85 88
3 136 137 138
3 17 22 21
3 162 163 183
3 113 114 112
3 97 96 94
3 132 50 133
3 52 50 53
3 134 136 135
3 28 32 52
3 38 42 43
3 127 128 60
3 72 69 74
3 31 32 27
3 185 187 186
3 163 187 185
3 113 116 114
3 137 140 175
3 46 47 49
3 161 166 153
3 125 124 126
3 93 91 89
3 139 140 137
3 65 125 126
3 14 3 1
3 30 27 29
3 70 4 2
3 148 152 150

POINT_DATA 196
COLOR_SCALARS GocadColor 4
1 0.74902 0.795026 1
1 0.74902 0.795026 1
1 0.74902 0.795026 1
1 0.74902 0.795026 1
1 0.74902 0.795026 1
1 0.74902 0.795026 1
1 0.74902 0.795026 1
1 0.74902 0.795026 1
1 0.74902 0.795026 1
1 0.74902 0.795026 1
1 0.74902 0.795026 1
1 0.74902 0.795026 1
1 0.74902 0.795026 1
1 0.74902 0.795026 1
1 0.74902 0.795026 1
1 0.74902 0.795026 1
1 0.74902 0.795026 1
1 0.74902 0.795026 1
1 0.74902 0.795026 1
1 0.74902 0.795026 1
1 0.74902 0.795026 1
1 0.74902 0.795026 1
1 0.74902 0.795026 1
1 0.74902 0.795026 1
1 0.74902 0.795026 1
1 0.74902 0.795026 1
1 0.74902 0.795026 1
1 0.74902 0.795026 1
1 0.74902 0.795026 1
1 0.74902 0.795026 1
1 0.74902 0.795026 1
1 0.74902 0.795026 1
1 0.74902 0.795026 1
1 0.74902 0.795026 1
1 0.74902 0.795026 1
1 0.74902 0.795026 1
1 0.74902 0.795026 1
1 0.74902 0.795026 1
1 0.74902 0.795026 1
1 0.74902 0.795026 1
1 0.74902 0.795026 1
1 0.74902 0.795026 1
1 0.74902 0.795026 1
1 0.74902 0.795026 1
1 0.74902 0.795026 1
1 0.74902 0.795026 1
1 0.74902 0.795026 1
1 0.74902 0.795026 1
1 0.74902 0.795026 1
1 0.74902 0.795026 1
1 0.74902 0.795026 1
1 0.74902 0.795026 1
1 0.74902 0.795026 1
1 0.74902 0.795026 1
1 0.74902 0.795026 1
1 0.74902 0.795026 1
1 0.74902 0.795026 1
1 0.74902 0.795026 1
1 0.74902 0.795026 1
1 0.74902 0.795026 1
1 0.74902 0.795026 1
1 0.74902 0.795026 1
1 0.74902 0.795026 1
1 0.74902 0.795026 1
1 0.74902 0.795026 1
1 0.74902 0.795026 1
1 0.74902 0.795026 1
1 0.74902 0.795026 1
1 0.74902 0.795026 1
1 0.74902 0.795026 1
1 0.74902 0.795026 1
1 0.74902 0.795026 1
1 0.74902 0.795026 1
1 0.74902 0.795026 1
1 0.74902 0.795026 1
1 0.74902 0.795026 1
1 0.74902 0.795026 1
1 0.74902 0.795026 1
1 0.74902 0.795026 1
1 0.74902 0.795026 1
1 0.74902 0.795026 1
1 0.74902 0.795026 1
1 0.74902 0.795026 1
1 0.74902 0.795026 1
1 0.74902 0.795026 1
1 0.74902 0.795026 1
1 0.74902 0.795026 1
1 0.74902 0.795026 1
1 0.74902 0.795026 1
1 0.74902 0.795026 1
1 0.74902 0.795026 1
1 0.74902 0.795026 1
1 0.74902 0.795026 1
1 0.74902 0.795026 1
1 0.74902 0.795026 1
1 0.74902 0.795026 1
1 0.74902 0.795026 1
1 0.74902 0.795026 1
1 0.74902 0.795026 1
1 0.74902 0.795026 1
1 0.74902 0.795026 1
1 0.74902 0.795026 1
1 0.74902 0.795026 1
1 0.74902 0.795026 1
1 0.74902 0.795026 1
1 0.74902 0.795026 1
1 0.74902 0.795026 1
1 0.74902 0.795026 1
1 0.74902 0.795026 1
1 0.74902 0.795026 1
1 0.74902 0.795026 1
1 0.74902 0.795026 1
1 0.74902 0.795026 1
1 0.74902 0.795026 1
1 0.74902 0.795026 1
1 0.74902 0.795026 1
1 0.74902 0.795026 1
1 0.74902 0.795026 1
1 0.74902 0.795026 1
1 0.74902 0.795026 1
1 0.74902 0.795026 1
1 0.74902 0.795026 1
1 0.74902 0.795026 1
1 0.74902 0.795026 1
1 0.74902 0.795026 1
1 0.74902 0.795026 1
1 0.74902 0.795026 1
1 0.74902 0.795026 1
1 0.74902 0.795026 1
1 0.74902 0.795026 1
1 0.74902 0.795026 1
1 0.74902 0.795026 1
1 0.74902 0.795026 1
1 0.74902 0.795026 1
1 0.74902 0.795026 1
1 0.74902 0.795026 1
1 0.74902 0.795026 1
1 0.74902 0.795026 1
1 0.74902 0.795026 1
1 0.74902 0.795026 1
1 0.74902 0.795026 1
1 0.74902 0.795026 1
1 0.74902 0.795026 1
1 0.74902 0.795026 1
1 0.74902 0.795026 1
1 0.74902 0.795026 1
1 0.74902 0.795026 1
1 0.74902 0.795026 1
1 0.74902 0.795026 1
1 0.74902 0.795026 1
1 0.74902 0.795026 1
1 0.74902 0.795026 1
1 0.74902 0.795026 1
1 0.74902 0.795026 1
1 0.74902 0.795026 1
1 0.74902 0.795026 1
1 0.74902 0.795026 1
1 0.74902 0.795026 1
1 0.74902 0.795026 1
1 0.74902 0.795026 1
1 0.74902 0.795026 1
1 0.74902 0.795026 1
1 0.74902 0.795026 1
1 0.74902 0.795026 1
1 0.74902 0.795026 1
1 0.74902 0.795026 1
1 0.74902 0.795026 1
1 0.74902 0.795026 1
1 0.74902 0.795026 1
1 0.74902 0.795026 1
1 0.74902 0.795026 1
1 0.74902 0.795026 1
1 0.74902 0.795026 1
1 0.74902 0.795026 1
1 0.74902 0.795026 1
1 0.74902 0.795026 1
1 0.74902 0.795026 1
1 0.74902 0.795026 1
1 0.74902 0.795026 1
1 0.74902 0.795026 1
1 0.74902 0.795026 1
1 0.74902 0.795026 1
1 0.74902 0.795026 1
1 0.74902 0.795026 1
1 0.74902 0.795026 1
1 0.74902 0.795026 1
1 0.74902 0.795026 1
1 0.74902 0.795026 1
1 0.74902 0.795026 1
1 0.74902 0.795026 1
1 0.74902 0.795026 1
1 0.74902 0.795026 1
1 0.74902 0.795026 1
1 0.74902 0.795026 1
1 0.74902 0.795026 1
1 0.74902 0.795026 1

