# vtk DataFile Version 3.0
Gocad TSurf to VTK
ASCII
DATASET POLYDATA
POINTS 93 float
21573100.000 4586320.000 307.500
21573100.000 4586490.000 265.000
21573100.000 4586490.000 342.500
21573100.000 4586660.000 338.750
21573100.000 4586320.000 346.250
21573075.000 4586317.500 272.500
21573050.000 4586485.000 195.000
21573100.000 4586150.000 350.000
21572900.000 4586110.000 205.000
21573100.000 4586320.000 346.250
21573100.000 4586490.000 342.500
21573100.000 4586320.000 346.250
21573100.000 4586490.000 342.500
21573100.000 4586660.000 338.750
21573100.000 4586660.000 338.750
21573100.000 4586830.000 335.000
21573100.000 4586660.000 222.500
21573100.000 4586830.000 180.000
21573025.000 4586652.500 117.500
21572950.000 4586465.000 122.500
21572925.000 4586287.500 163.750
21572975.000 4586642.500 81.250
21572850.000 4586625.000 40.000
21573000.000 4586820.000 40.000
21572700.000 4586430.000 40.000
21572550.000 4586235.000 40.000
21572400.000 4586040.000 40.000
21572850.000 4585947.500 188.750
21572925.000 4585962.500 231.250
21572475.000 4585895.000 65.000
21572325.000 4585865.000 17.500
21572800.000 4585785.000 172.500
21572950.000 4585815.000 257.500
21572550.000 4585750.000 90.000
21572750.000 4585622.500 156.250
21572975.000 4585667.500 283.750
21572625.000 4585605.000 115.000
21572250.000 4585690.000 -5.000
21572700.000 4585460.000 140.000
21572175.000 4585515.000 -27.500
21573000.000 4585520.000 310.000
21572825.000 4585110.000 316.250
21573000.000 4585530.000 310.000
21572825.000 4585117.500 316.250
21572975.000 4585675.000 283.750
21573025.000 4585685.000 320.000
21572950.000 4585820.000 257.500
21573025.000 4585685.000 320.000
21573050.000 4585840.000 330.000
21573050.000 4585840.000 330.000
21573075.000 4585995.000 340.000
21572925.000 4585965.000 231.250
21573075.000 4585995.000 340.000
21572767.656 4584982.328 318.298
21572769.813 4584982.266 318.221
21572770.469 4584982.250 318.197
21572600.000 4585065.000 188.750
21572645.344 4584734.023 310.032
21572100.000 4585340.000 -50.000
21572150.000 4584975.000 46.250
21571800.000 4585432.500 -76.250
21571600.000 4585230.000 -115.000
21572000.000 4585635.000 -37.500
21572200.000 4585837.500 1.250
21571750.000 4584880.000 -45.000
21572125.000 4584962.500 3.750
21572150.000 4584970.000 27.500
21571900.000 4584530.000 25.000
21572150.000 4584585.000 57.500
21572200.000 4584600.000 105.000
21572050.000 4584180.000 95.000
21572175.000 4584207.500 111.250
21572250.000 4584230.000 182.500
21572200.000 4583830.000 165.000
21572300.000 4583860.000 260.000
21572300.000 4583879.234 332.139
21572298.938 4583887.453 331.752
21572298.172 4583893.383 331.472
21572250.000 4584245.000 238.750
21572250.000 4584245.000 238.750
21572200.000 4584610.000 142.500
21572200.000 4584610.000 142.500
21572400.000 4584275.000 286.250
21572500.000 4584670.000 237.500
21572311.234 4583924.359 329.525
21572437.828 4584282.445 307.718
21572298.172 4583893.383 331.472
21572437.906 4584282.500 307.712
21572481.828 4584393.750 303.837
21572510.141 4584465.359 301.340
21572574.047 4584592.609 305.380
21572625.734 4584695.148 308.753
21572150.000 4584975.000 46.250

POLYGONS 144 576
3 37 36 39
3 16 17 15
3 11 9 10
3 60 58 61
3 34 36 33
3 66 58 92
3 51 46 28
3 1 6 16
3 75 74 72
3 19 20 24
3 20 8 25
3 27 29 26
3 78 69 80
3 78 80 81
3 83 90 89
3 80 69 66
3 10 4 2
3 39 38 58
3 4 0 2
3 43 40 42
3 5 8 20
3 3 16 15
3 72 77 76
3 0 5 1
3 31 29 27
3 64 58 65
3 6 20 19
3 34 33 31
3 83 56 57
3 41 40 43
3 28 32 27
3 74 73 71
3 79 82 84
3 10 9 4
3 81 59 83
3 47 48 49
3 22 19 24
3 75 72 76
3 4 7 0
3 46 44 32
3 80 92 59
3 6 18 16
3 21 22 23
3 74 71 72
3 72 68 69
3 49 50 52
3 11 10 12
3 14 13 15
3 18 19 21
3 50 8 7
3 79 81 82
3 0 7 5
3 30 37 63
3 2 1 3
3 5 7 8
3 18 21 23
3 32 35 31
3 12 10 13
3 72 71 68
3 82 88 87
3 62 39 60
3 6 5 20
3 9 7 4
3 1 16 3
3 63 37 62
3 31 33 29
3 32 44 35
3 18 23 17
3 44 42 35
3 37 39 62
3 18 6 19
3 59 56 83
3 48 46 51
3 65 58 66
3 31 35 34
3 70 68 71
3 56 41 55
3 13 10 2
3 91 83 57
3 39 58 60
3 41 43 53
3 29 30 26
3 21 19 22
3 56 55 57
3 35 40 34
3 29 33 30
3 51 28 8
3 27 32 31
3 36 38 39
3 47 45 48
3 28 27 8
3 81 80 59
3 30 33 37
3 41 54 55
3 12 13 14
3 73 70 71
3 92 58 59
3 67 68 70
3 16 18 17
3 13 3 15
3 82 87 85
3 48 51 50
3 82 83 88
3 49 48 50
3 45 44 46
3 69 65 66
3 5 6 1
3 59 58 56
3 50 51 8
3 78 72 69
3 0 1 2
3 84 82 85
3 27 26 8
3 69 68 65
3 52 50 7
3 24 20 25
3 83 89 88
3 86 79 84
3 79 78 81
3 72 78 77
3 67 65 68
3 58 38 56
3 81 83 82
3 13 2 3
3 34 40 38
3 41 53 54
3 34 38 36
3 33 36 37
3 45 46 48
3 35 42 40
3 45 42 44
3 56 38 41
3 83 91 90
3 78 79 77
3 11 7 9
3 30 63 26
3 8 26 25
3 28 46 32
3 80 66 92
3 79 86 77
3 64 65 67
3 61 58 64
3 47 42 45
3 38 40 41

POINT_DATA 93
COLOR_SCALARS GocadColor 4
0.129458 0.541176 0.129458 1
0.129458 0.541176 0.129458 1
0.129458 0.541176 0.129458 1
0.129458 0.541176 0.129458 1
0.129458 0.541176 0.129458 1
0.129458 0.541176 0.129458 1
0.129458 0.541176 0.129458 1
0.129458 0.541176 0.129458 1
0.129458 0.541176 0.129458 1
0.129458 0.541176 0.129458 1
0.129458 0.541176 0.129458 1
0.129458 0.541176 0.129458 1
0.129458 0.541176 0.129458 1
0.129458 0.541176 0.129458 1
0.129458 0.541176 0.129458 1
0.129458 0.541176 0.129458 1
0.129458 0.541176 0.129458 1
0.129458 0.541176 0.129458 1
0.129458 0.541176 0.129458 1
0.129458 0.541176 0.129458 1
0.129458 0.541176 0.129458 1
0.129458 0.541176 0.129458 1
0.129458 0.541176 0.129458 1
0.129458 0.541176 0.129458 1
0.129458 0.541176 0.129458 1
0.129458 0.541176 0.129458 1
0.129458 0.541176 0.129458 1
0.129458 0.541176 0.129458 1
0.129458 0.541176 0.129458 1
0.129458 0.541176 0.129458 1
0.129458 0.541176 0.129458 1
0.129458 0.541176 0.129458 1
0.129458 0.541176 0.129458 1
0.129458 0.541176 0.129458 1
0.129458 0.541176 0.129458 1
0.129458 0.541176 0.129458 1
0.129458 0.541176 0.129458 1
0.129458 0.541176 0.129458 1
0.129458 0.541176 0.129458 1
0.129458 0.541176 0.129458 1
0.129458 0.541176 0.129458 1
0.129458 0.541176 0.129458 1
0.129458 0.541176 0.129458 1
0.129458 0.541176 0.129458 1
0.129458 0.541176 0.129458 1
0.129458 0.541176 0.129458 1
0.129458 0.541176 0.129458 1
0.129458 0.541176 0.129458 1
0.129458 0.541176 0.129458 1
0.129458 0.541176 0.129458 1
0.129458 0.541176 0.129458 1
0.129458 0.541176 0.129458 1
0.129458 0.541176 0.129458 1
0.129458 0.541176 0.129458 1
0.129458 0.541176 0.129458 1
0.129458 0.541176 0.129458 1
0.129458 0.541176 0.129458 1
0.129458 0.541176 0.129458 1
0.129458 0.541176 0.129458 1
0.129458 0.541176 0.129458 1
0.129458 0.541176 0.129458 1
0.129458 0.541176 0.129458 1
0.129458 0.541176 0.129458 1
0.129458 0.541176 0.129458 1
0.129458 0.541176 0.129458 1
0.129458 0.541176 0.129458 1
0.129458 0.541176 0.129458 1
0.129458 0.541176 0.129458 1
0.129458 0.541176 0.129458 1
0.129458 0.541176 0.129458 1
0.129458 0.541176 0.129458 1
0.129458 0.541176 0.129458 1
0.129458 0.541176 0.129458 1
0.129458 0.541176 0.129458 1
0.129458 0.541176 0.129458 1
0.129458 0.541176 0.129458 1
0.129458 0.541176 0.129458 1
0.129458 0.541176 0.129458 1
0.129458 0.541176 0.129458 1
0.129458 0.541176 0.129458 1
0.129458 0.541176 0.129458 1
0.129458 0.541176 0.129458 1
0.129458 0.541176 0.129458 1
0.129458 0.541176 0.129458 1
0.129458 0.541176 0.129458 1
0.129458 0.541176 0.129458 1
0.129458 0.541176 0.129458 1
0.129458 0.541176 0.129458 1
0.129458 0.541176 0.129458 1
0.129458 0.541176 0.129458 1
0.129458 0.541176 0.129458 1
0.129458 0.541176 0.129458 1
0.129458 0.541176 0.129458 1

