# vtk DataFile Version 3.0
Gocad TSurf to VTK
ASCII
DATASET POLYDATA
POINTS 76 float
21578075.000 4569282.500 -5.000
21577775.000 4569182.500 353.750
21577700.000 4569040.000 365.000
21579500.000 4569650.000 -1630.000
21577850.000 4569325.000 342.500
21577925.000 4569467.500 331.250
21578825.000 4569767.500 -745.000
21579275.000 4569920.000 -1243.750
21578000.000 4569610.000 320.000
21579200.000 4570010.000 -1115.000
21578250.000 4569820.000 117.500
21579950.000 4570175.000 -1967.500
21579650.000 4569825.000 -1742.500
21580100.000 4570350.000 -2080.000
21579975.000 4570430.000 -1846.250
21580150.000 4570250.000 -2181.250
21580200.000 4570150.000 -2282.500
21580250.000 4570050.000 -2383.750
21580300.000 4569950.000 -2485.000
21580175.000 4569830.000 -2355.000
21579650.000 4569560.000 -1797.500
21579250.000 4569490.000 -1417.500
21580050.000 4569710.000 -2225.000
21579925.000 4569590.000 -2095.000
21579800.000 4569470.000 -1965.000
21579575.000 4569267.500 -1748.750
21578525.000 4568915.000 -841.250
21578300.000 4569017.500 -493.750
21579350.000 4569065.000 -1532.500
21579125.000 4568862.500 -1316.250
21578900.000 4568660.000 -1100.000
21578100.000 4568520.000 -552.500
21578050.000 4569020.000 -195.000
21578000.000 4568360.000 -490.000
21577875.000 4568440.000 -262.500
21577138.531 4568059.883 400.326
21577231.906 4568211.344 404.415
21577133.938 4568052.066 400.118
21577255.516 4568252.250 405.498
21577625.000 4568600.000 192.500
21577340.422 4568389.855 409.214
21577369.375 4568444.969 410.635
21577407.781 4568522.770 415.748
21577508.453 4568674.590 427.921
21577533.484 4568740.273 431.606
21577550.000 4568770.000 425.000
21577600.000 4568860.000 392.500
21577600.000 4568860.000 405.000
21577650.000 4568950.000 385.000
21577875.000 4569030.000 88.750
21579500.000 4570505.000 -1137.500
21579850.000 4570510.000 -1612.500
21579050.000 4570340.000 -646.250
21579600.000 4570670.000 -1145.000
21578750.000 4570240.000 -287.500
21579000.000 4570450.000 -490.000
21578225.000 4570052.500 353.750
21578150.000 4569905.000 342.500
21578300.000 4570200.000 365.000
21578400.000 4570317.500 263.750
21578775.000 4570615.000 -152.500
21578325.000 4570287.500 353.750
21578325.000 4570287.500 353.750
21578350.000 4570375.000 342.500
21578375.000 4570462.500 331.250
21578600.000 4570552.500 61.250
21578400.000 4570550.000 320.000
21578700.000 4570670.000 -40.000
21578900.000 4570730.000 -140.000
21578925.000 4570660.000 -227.500
21578975.000 4570520.000 -402.500
21579075.000 4570715.000 -391.250
21579250.000 4570700.000 -642.500
21579425.000 4570685.000 -893.750
21578075.000 4569757.500 331.250
21579725.000 4570590.000 -1378.750

POLYGONS 102 408
3 26 27 32
3 34 31 32
3 49 46 32
3 54 58 56
3 21 2 27
3 54 56 10
3 73 55 53
3 64 63 59
3 73 70 55
3 22 19 20
3 24 20 21
3 69 68 60
3 60 68 67
3 24 23 20
3 33 31 34
3 65 64 59
3 19 3 20
3 50 53 52
3 54 55 58
3 0 1 2
3 60 65 59
3 52 9 50
3 61 62 58
3 9 14 50
3 39 34 32
3 6 9 8
3 32 46 39
3 3 12 7
3 35 37 33
3 31 26 32
3 65 67 66
3 11 13 9
3 46 45 39
3 51 75 50
3 59 55 60
3 71 69 70
3 52 53 55
3 72 70 73
3 43 39 44
3 0 2 3
3 10 74 8
3 6 5 0
3 41 40 39
3 70 69 60
3 6 8 5
3 0 3 7
3 56 57 10
3 42 41 39
3 7 6 0
3 12 3 18
3 3 21 20
3 14 51 50
3 61 63 62
3 72 71 70
3 49 2 46
3 10 9 52
3 40 38 39
3 21 25 24
3 11 9 7
3 39 45 44
3 15 11 16
3 10 57 74
3 17 12 18
3 32 27 49
3 55 70 60
3 25 21 26
3 17 16 11
3 38 34 39
3 18 3 19
3 71 68 69
3 29 28 26
3 54 10 52
3 33 30 31
3 27 2 49
3 61 59 63
3 10 8 9
3 59 61 58
3 31 30 26
3 21 27 26
3 65 66 64
3 52 55 54
3 5 4 0
3 7 12 11
3 46 48 47
3 14 9 13
3 0 4 1
3 59 58 55
3 2 48 46
3 3 2 21
3 36 35 34
3 22 20 23
3 7 9 6
3 35 33 34
3 75 53 50
3 38 36 34
3 60 67 65
3 43 42 39
3 12 17 11
3 30 29 26
3 15 13 11
3 28 25 26
3 45 46 47

POINT_DATA 76
COLOR_SCALARS GocadColor 4
0.0930037 0.0930037 0.439216 1
0.0930037 0.0930037 0.439216 1
0.0930037 0.0930037 0.439216 1
0.0930037 0.0930037 0.439216 1
0.0930037 0.0930037 0.439216 1
0.0930037 0.0930037 0.439216 1
0.0930037 0.0930037 0.439216 1
0.0930037 0.0930037 0.439216 1
0.0930037 0.0930037 0.439216 1
0.0930037 0.0930037 0.439216 1
0.0930037 0.0930037 0.439216 1
0.0930037 0.0930037 0.439216 1
0.0930037 0.0930037 0.439216 1
0.0930037 0.0930037 0.439216 1
0.0930037 0.0930037 0.439216 1
0.0930037 0.0930037 0.439216 1
0.0930037 0.0930037 0.439216 1
0.0930037 0.0930037 0.439216 1
0.0930037 0.0930037 0.439216 1
0.0930037 0.0930037 0.439216 1
0.0930037 0.0930037 0.439216 1
0.0930037 0.0930037 0.439216 1
0.0930037 0.0930037 0.439216 1
0.0930037 0.0930037 0.439216 1
0.0930037 0.0930037 0.439216 1
0.0930037 0.0930037 0.439216 1
0.0930037 0.0930037 0.439216 1
0.0930037 0.0930037 0.439216 1
0.0930037 0.0930037 0.439216 1
0.0930037 0.0930037 0.439216 1
0.0930037 0.0930037 0.439216 1
0.0930037 0.0930037 0.439216 1
0.0930037 0.0930037 0.439216 1
0.0930037 0.0930037 0.439216 1
0.0930037 0.0930037 0.439216 1
0.0930037 0.0930037 0.439216 1
0.0930037 0.0930037 0.439216 1
0.0930037 0.0930037 0.439216 1
0.0930037 0.0930037 0.439216 1
0.0930037 0.0930037 0.439216 1
0.0930037 0.0930037 0.439216 1
0.0930037 0.0930037 0.439216 1
0.0930037 0.0930037 0.439216 1
0.0930037 0.0930037 0.439216 1
0.0930037 0.0930037 0.439216 1
0.0930037 0.0930037 0.439216 1
0.0930037 0.0930037 0.439216 1
0.0930037 0.0930037 0.439216 1
0.0930037 0.0930037 0.439216 1
0.0930037 0.0930037 0.439216 1
0.0930037 0.0930037 0.439216 1
0.0930037 0.0930037 0.439216 1
0.0930037 0.0930037 0.439216 1
0.0930037 0.0930037 0.439216 1
0.0930037 0.0930037 0.439216 1
0.0930037 0.0930037 0.439216 1
0.0930037 0.0930037 0.439216 1
0.0930037 0.0930037 0.439216 1
0.0930037 0.0930037 0.439216 1
0.0930037 0.0930037 0.439216 1
0.0930037 0.0930037 0.439216 1
0.0930037 0.0930037 0.439216 1
0.0930037 0.0930037 0.439216 1
0.0930037 0.0930037 0.439216 1
0.0930037 0.0930037 0.439216 1
0.0930037 0.0930037 0.439216 1
0.0930037 0.0930037 0.439216 1
0.0930037 0.0930037 0.439216 1
0.0930037 0.0930037 0.439216 1
0.0930037 0.0930037 0.439216 1
0.0930037 0.0930037 0.439216 1
0.0930037 0.0930037 0.439216 1
0.0930037 0.0930037 0.439216 1
0.0930037 0.0930037 0.439216 1
0.0930037 0.0930037 0.439216 1
0.0930037 0.0930037 0.439216 1

