# vtk DataFile Version 3.0
Gocad TSurf to VTK
ASCII
DATASET POLYDATA
POINTS 974 float
21571100.000 4585640.000 -920.000
21570825.000 4585535.000 -872.500
21570850.000 4585660.000 -870.000
21570600.000 4585680.000 -820.000
21570850.000 4585762.500 -845.000
21571050.000 4585390.000 -925.000
21570950.000 4585215.000 -1022.500
21571350.000 4585620.000 -970.000
21571100.000 4585845.000 -870.000
21571275.000 4585245.000 -977.500
21571225.000 4585157.500 -1026.250
21571600.000 4585600.000 -1020.000
21571350.000 4585927.500 -895.000
21571500.000 4585100.000 -1030.000
21571725.000 4585355.000 -1047.500
21571800.000 4585730.000 -1040.000
21571600.000 4586010.000 -920.000
21571950.000 4585610.000 -1065.000
21572000.000 4585860.000 -1060.000
21571800.000 4586037.500 -965.000
21572175.000 4585865.000 -1082.500
21572200.000 4585990.000 -1080.000
21572000.000 4586065.000 -1010.000
21572400.000 4586120.000 -1100.000
21572200.000 4586092.500 -1055.000
21572225.000 4586172.500 -1013.750
21572050.000 4586225.000 -927.500
21572300.000 4586525.000 -796.250
21572100.000 4586460.000 -782.500
21572500.000 4586590.000 -810.000
21572600.000 4586357.500 -1038.750
21572300.000 4586675.000 -782.500
21572375.000 4586855.000 -763.750
21572150.000 4586880.000 -742.500
21572600.000 4586830.000 -785.000
21572675.000 4586710.000 -821.250
21572400.000 4586907.500 -736.250
21572200.000 4586985.000 -687.500
21572400.000 4586910.000 -736.250
21572475.000 4587142.500 -766.250
21572250.000 4587145.000 -707.500
21572700.000 4587140.000 -825.000
21572750.000 4586890.000 -802.500
21572825.000 4587122.500 -832.500
21572850.000 4586830.000 -832.500
21572900.000 4586950.000 -820.000
21572800.000 4586595.000 -977.500
21573000.000 4586832.500 -916.250
21573025.000 4586950.000 -843.750
21573200.000 4587070.000 -855.000
21573050.000 4587010.000 -837.500
21573075.000 4587087.500 -847.500
21572950.000 4587105.000 -840.000
21573100.000 4587120.000 -895.000
21573000.000 4587125.000 -877.500
21573100.000 4587170.000 -800.000
21573000.000 4587162.500 -806.250
21572900.000 4587130.000 -860.000
21572900.000 4587155.000 -812.500
21572800.000 4587135.000 -842.500
21572800.000 4587147.500 -818.750
21572200.000 4586990.000 -687.500
21572025.000 4587147.500 -648.750
21572000.000 4587062.500 -638.750
21572000.000 4587070.000 -638.750
21571925.000 4586905.000 -721.250
21572100.000 4586760.000 -755.000
21571800.000 4587140.000 -590.000
21571700.000 4586930.000 -700.000
21571900.000 4586845.000 -727.500
21571625.000 4587145.000 -565.000
21571550.000 4586987.500 -647.500
21571800.000 4587150.000 -590.000
21571625.000 4587152.500 -565.000
21571450.000 4587150.000 -540.000
21571450.000 4587155.000 -540.000
21571275.000 4587155.000 -515.000
21571400.000 4587045.000 -595.000
21571275.000 4587157.500 -515.000
21571100.000 4587160.000 -490.000
21571250.000 4587102.500 -542.500
21571175.000 4586907.500 -595.000
21571350.000 4586915.000 -630.000
21571000.000 4586900.000 -560.000
21571100.000 4586705.000 -677.500
21570875.000 4587122.500 -511.250
21570800.000 4586927.500 -563.750
21570650.000 4587085.000 -532.500
21570900.000 4586630.000 -670.000
21570725.000 4586725.000 -646.250
21571100.000 4586555.000 -691.250
21571300.000 4586780.000 -685.000
21571025.000 4586270.000 -785.000
21571250.000 4586290.000 -775.000
21570800.000 4586250.000 -795.000
21571000.000 4586190.000 -826.250
21570725.000 4586627.500 -702.500
21570650.000 4586342.500 -796.250
21570725.000 4586672.500 -663.750
21570550.000 4586625.000 -735.000
21570550.000 4586715.000 -657.500
21570550.000 4586820.000 -622.500
21570375.000 4586622.500 -767.500
21570375.000 4586757.500 -651.250
21570500.000 4586435.000 -797.500
21570350.000 4586527.500 -798.750
21570625.000 4586227.500 -823.750
21570450.000 4586205.000 -852.500
21570475.000 4585980.000 -823.750
21570275.000 4586182.500 -881.250
21570350.000 4586040.000 -852.500
21570200.000 4586620.000 -800.000
21570100.000 4586160.000 -910.000
21570225.000 4586100.000 -881.250
21570075.000 4586532.500 -778.750
21570000.000 4586187.500 -861.250
21570075.000 4586645.000 -761.250
21569950.000 4586670.000 -722.500
21570200.000 4586800.000 -645.000
21570075.000 4586780.000 -645.000
21570375.000 4586915.000 -598.750
21570200.000 4587010.000 -575.000
21570400.000 4586982.500 -571.250
21570600.000 4586955.000 -567.500
21570425.000 4587047.500 -553.750
21570075.000 4586937.500 -592.500
21569950.000 4586865.000 -610.000
21569950.000 4586760.000 -645.000
21569825.000 4586792.500 -627.500
21569825.000 4586695.000 -683.750
21569950.000 4586445.000 -757.500
21569825.000 4586740.000 -645.000
21569700.000 4586720.000 -645.000
21569825.000 4586357.500 -736.250
21569700.000 4586270.000 -715.000
21569800.000 4586242.500 -763.750
21569650.000 4586337.500 -701.250
21569650.000 4586255.000 -711.250
21569650.000 4586675.000 -648.750
21569600.000 4586405.000 -687.500
21569600.000 4586240.000 -707.500
21569600.000 4586630.000 -652.500
21569550.000 4586472.500 -673.750
21569550.000 4586225.000 -703.750
21569550.000 4586585.000 -656.250
21569500.000 4586540.000 -660.000
21569500.000 4586210.000 -700.000
21569425.000 4586492.500 -652.500
21569425.000 4586245.000 -682.500
21569350.000 4586445.000 -645.000
21569400.000 4586152.500 -707.500
21569350.000 4586280.000 -665.000
21569300.000 4585720.000 -865.000
21569250.000 4585785.000 -831.250
21569525.000 4586112.500 -741.250
21569375.000 4585745.000 -865.000
21569550.000 4586015.000 -782.500
21569375.000 4585620.000 -937.500
21569450.000 4585770.000 -865.000
21569200.000 4585130.000 -1170.000
21569300.000 4585177.500 -1166.250
21569150.000 4585225.000 -1115.000
21569125.000 4585140.000 -1132.500
21569225.000 4585667.500 -886.250
21569100.000 4585320.000 -1060.000
21569225.000 4585725.000 -855.000
21569150.000 4585730.000 -845.000
21569200.000 4585850.000 -797.500
21569300.000 4586095.000 -715.000
21569075.000 4585735.000 -835.000
21569150.000 4585915.000 -763.750
21569150.000 4585615.000 -907.500
21569075.000 4585562.500 -928.750
21569050.000 4585415.000 -1005.000
21569000.000 4585740.000 -825.000
21569000.000 4585510.000 -950.000
21568825.000 4585550.000 -895.000
21568750.000 4585295.000 -947.500
21568825.000 4585722.500 -801.250
21568650.000 4585590.000 -840.000
21568875.000 4585792.500 -776.250
21568750.000 4585845.000 -727.500
21568950.000 4585855.000 -773.750
21568900.000 4585970.000 -722.500
21569100.000 4585980.000 -730.000
21569025.000 4586035.000 -702.500
21569200.000 4586037.500 -722.500
21569200.000 4586350.000 -630.000
21569275.000 4586315.000 -647.500
21569275.000 4586397.500 -637.500
21569100.000 4586312.500 -627.500
21569000.000 4586275.000 -625.000
21568950.000 4586090.000 -675.000
21568900.000 4586237.500 -622.500
21568850.000 4586085.000 -671.250
21568875.000 4586145.000 -647.500
21568800.000 4586200.000 -620.000
21568625.000 4585897.500 -678.750
21568500.000 4585950.000 -630.000
21568475.000 4585687.500 -753.750
21568625.000 4586172.500 -561.250
21568400.000 4585985.000 -568.750
21568450.000 4586145.000 -502.500
21568375.000 4585950.000 -585.000
21568300.000 4586020.000 -507.500
21568300.000 4585670.000 -730.000
21568225.000 4585740.000 -660.000
21568475.000 4585630.000 -785.000
21568650.000 4585705.000 -777.500
21568450.000 4585545.000 -802.500
21568425.000 4585460.000 -822.500
21568600.000 4585420.000 -875.000
21567975.000 4584995.000 -935.000
21568250.000 4584940.000 -990.000
21567700.000 4585050.000 -880.000
21567950.000 4584900.000 -980.000
21567700.000 4585192.500 -788.750
21567650.000 4585155.000 -815.000
21568150.000 4585657.500 -676.250
21567700.000 4585335.000 -697.500
21568150.000 4585810.000 -590.000
21568250.000 4585950.000 -540.000
21568000.000 4585645.000 -622.500
21568075.000 4585880.000 -520.000
21568125.000 4585950.000 -495.000
21567850.000 4585632.500 -568.750
21567700.000 4585477.500 -606.250
21568000.000 4585950.000 -450.000
21567700.000 4585620.000 -515.000
21567025.000 4586442.500 -431.250
21566875.000 4586330.000 -510.000
21567250.000 4586690.000 -382.500
21566350.000 4587265.000 -347.500
21568100.000 4586090.000 -385.000
21567325.000 4586795.000 -333.750
21568200.000 4586055.000 -446.250
21568275.000 4586117.500 -443.750
21566500.000 4587430.000 -315.000
21566550.000 4587500.000 -282.500
21565750.000 4588170.000 -247.500
21565675.000 4588087.500 -263.750
21565775.000 4588205.000 -231.250
21565000.000 4588910.000 -180.000
21565625.000 4588050.000 -290.000
21565475.000 4587952.500 -327.500
21566150.000 4587125.000 -425.000
21564800.000 4588780.000 -230.000
21565250.000 4587817.500 -387.500
21564900.000 4589000.000 -186.250
21564750.000 4588902.500 -223.750
21565025.000 4589035.000 -170.000
21565050.000 4589160.000 -160.000
21564800.000 4589090.000 -192.500
21565075.000 4589285.000 -150.000
21564700.000 4589180.000 -198.750
21564700.000 4589025.000 -217.500
21565100.000 4589410.000 -140.000
21564600.000 4589270.000 -205.000
21564650.000 4589147.500 -211.250
21564600.000 4589547.500 -195.000
21564450.000 4589505.000 -205.000
21564975.000 4589652.500 -146.250
21564600.000 4589825.000 -185.000
21564850.000 4589895.000 -152.500
21564600.000 4590102.500 -175.000
21564300.000 4589740.000 -205.000
21564725.000 4590137.500 -158.750
21564600.000 4590380.000 -165.000
21564150.000 4589975.000 -205.000
21564000.000 4590210.000 -205.000
21564050.000 4589937.500 -225.000
21563800.000 4590940.000 -223.750
21563350.000 4590812.500 -253.750
21563000.000 4591500.000 -282.500
21563600.000 4590080.000 -245.000
21563050.000 4590715.000 -283.750
21563750.000 4589840.000 -255.000
21563725.000 4589827.500 -290.000
21563900.000 4589600.000 -265.000
21563600.000 4589792.500 -341.250
21563850.000 4589575.000 -335.000
21563300.000 4590000.000 -425.000
21563375.000 4589732.500 -476.250
21562825.000 4590655.000 -418.750
21562500.000 4591350.000 -322.500
21562825.000 4590655.000 -418.750
21562350.000 4591310.000 -412.500
21562800.000 4590597.500 -450.000
21562300.000 4591195.000 -475.000
21562750.000 4590457.500 -495.000
[...]
POINT_DATA 974
COLOR_SCALARS GocadColor 4
1 0.74902 0.795026 1
1 0.74902 0.795026 1
1 0.74902 0.795026 1
1 0.74902 0.795026 1
1 0.74902 0.795026 1
1 0.74902 0.795026 1
1 0.74902 0.795026 1
1 0.74902 0.795026 1
1 0.74902 0.795026 1
1 0.74902 0.795026 1
1 0.74902 0.795026 1
1 0.74902 0.795026 1
1 0.74902 0.795026 1
1 0.74902 0.795026 1
1 0.74902 0.795026 1
1 0.74902 0.795026 1
1 0.74902 0.795026 1
1 0.74902 0.795026 1
1 0.74902 0.795026 1
1 0.74902 0.795026 1
1 0.74902 0.795026 1
1 0.74902 0.795026 1
1 0.74902 0.795026 1
1 0.74902 0.795026 1
1 0.74902 0.795026 1
1 0.74902 0.795026 1
1 0.74902 0.795026 1
1 0.74902 0.795026 1
1 0.74902 0.795026 1
1 0.74902 0.795026 1
1 0.74902 0.795026 1
1 0.74902 0.795026 1
1 0.74902 0.795026 1
1 0.74902 0.795026 1
1 0.74902 0.795026 1
1 0.74902 0.795026 1
1 0.74902 0.795026 1
1 0.74902 0.795026 1
1 0.74902 0.795026 1
1 0.74902 0.795026 1
1 0.74902 0.795026 1
1 0.74902 0.795026 1
1 0.74902 0.795026 1
1 0.74902 0.795026 1
1 0.74902 0.795026 1
1 0.74902 0.795026 1
1 0.74902 0.795026 1
1 0.74902 0.795026 1
1 0.74902 0.795026 1
1 0.74902 0.795026 1
1 0.74902 0.795026 1
1 0.74902 0.795026 1
1 0.74902 0.795026 1
1 0.74902 0.795026 1
1 0.74902 0.795026 1
1 0.74902 0.795026 1
1 0.74902 0.795026 1
1 0.74902 0.795026 1
1 0.74902 0.795026 1
1 0.74902 0.795026 1
1 0.74902 0.795026 1
1 0.74902 0.795026 1
1 0.74902 0.795026 1
1 0.74902 0.795026 1
1 0.74902 0.795026 1
1 0.74902 0.795026 1
1 0.74902 0.795026 1
1 0.74902 0.795026 1
1 0.74902 0.795026 1
1 0.74902 0.795026 1
1 0.74902 0.795026 1
1 0.74902 0.795026 1
1 0.74902 0.795026 1
1 0.74902 0.795026 1
1 0.74902 0.795026 1
1 0.74902 0.795026 1
1 0.74902 0.795026 1
1 0.74902 0.795026 1
1 0.74902 0.795026 1
1 0.74902 0.795026 1
1 0.74902 0.795026 1
1 0.74902 0.795026 1
1 0.74902 0.795026 1
1 0.74902 0.795026 1
1 0.74902 0.795026 1
1 0.74902 0.795026 1
1 0.74902 0.795026 1
1 0.74902 0.795026 1
1 0.74902 0.795026 1
1 0.74902 0.795026 1
1 0.74902 0.795026 1
1 0.74902 0.795026 1
1 0.74902 0.795026 1
1 0.74902 0.795026 1
1 0.74902 0.795026 1
1 0.74902 0.795026 1
1 0.74902 0.795026 1
1 0.74902 0.795026 1
1 0.74902 0.795026 1
1 0.74902 0.795026 1
1 0.74902 0.795026 1
1 0.74902 0.795026 1
1 0.74902 0.795026 1
1 0.74902 0.795026 1
1 0.74902 0.795026 1
1 0.74902 0.795026 1
1 0.74902 0.795026 1
1 0.74902 0.795026 1
1 0.74902 0.795026 1
1 0.74902 0.795026 1
1 0.74902 0.795026 1
1 0.74902 0.795026 1
1 0.74902 0.795026 1
1 0.74902 0.795026 1
1 0.74902 0.795026 1
1 0.74902 0.795026 1
1 0.74902 0.795026 1
1 0.74902 0.795026 1
1 0.74902 0.795026 1
1 0.74902 0.795026 1
1 0.74902 0.795026 1
1 0.74902 0.795026 1
1 0.74902 0.795026 1
1 0.74902 0.795026 1
1 0.74902 0.795026 1
1 0.74902 0.795026 1
1 0.74902 0.795026 1
1 0.74902 0.795026 1
1 0.74902 0.795026 1
1 0.74902 0.795026 1
1 0.74902 0.795026 1
1 0.74902 0.795026 1
1 0.74902 0.795026 1
1 0.74902 0.795026 1
1 0.74902 0.795026 1
1 0.74902 0.795026 1
1 0.74902 0.795026 1
1 0.74902 0.795026 1
1 0.74902 0.795026 1
1 0.74902 0.795026 1
1 0.74902 0.795026 1
1 0.74902 0.795026 1
1 0.74902 0.795026 1
1 0.74902 0.795026 1
1 0.74902 0.795026 1
1 0.74902 0.795026 1
1 0.74902 0.795026 1
1 0.74902 0.795026 1
1 0.74902 0.795026 1
1 0.74902 0.795026 1
1 0.74902 0.795026 1
1 0.74902 0.795026 1
1 0.74902 0.795026 1
1 0.74902 0.795026 1
1 0.74902 0.795026 1
1 0.74902 0.795026 1
1 0.74902 0.795026 1
1 0.74902 0.795026 1
1 0.74902 0.795026 1
1 0.74902 0.795026 1
1 0.74902 0.795026 1
1 0.74902 0.795026 1
1 0.74902 0.795026 1
1 0.74902 0.795026 1
1 0.74902 0.795026 1
1 0.74902 0.795026 1
1 0.74902 0.795026 1
1 0.74902 0.795026 1
1 0.74902 0.795026 1
1 0.74902 0.795026 1
1 0.74902 0.795026 1
1 0.74902 0.795026 1
1 0.74902 0.795026 1
1 0.74902 0.795026 1
1 0.74902 0.795026 1
1 0.74902 0.795026 1
1 0.74902 0.795026 1
1 0.74902 0.795026 1
1 0.74902 0.795026 1
1 0.74902 0.795026 1
1 0.74902 0.795026 1
1 0.74902 0.795026 1
1 0.74902 0.795026 1
1 0.74902 0.795026 1
1 0.74902 0.795026 1
1 0.74902 0.795026 1
1 0.74902 0.795026 1
1 0.74902 0.795026 1
1 0.74902 0.795026 1
1 0.74902 0.795026 1
1 0.74902 0.795026 1
1 0.74902 0.795026 1
1 0.74902 0.795026 1
1 0.74902 0.795026 1
1 0.74902 0.795026 1
1 0.74902 0.795026 1
1 0.74902 0.795026 1
1 0.74902 0.795026 1
1 0.74902 0.795026 1
1 0.74902 0.795026 1
1 0.74902 0.795026 1
1 0.74902 0.795026 1
1 0.74902 0.795026 1
1 0.74902 0.795026 1
1 0.74902 0.795026 1
1 0.74902 0.795026 1
1 0.74902 0.795026 1
1 0.74902 0.795026 1
1 0.74902 0.795026 1
1 0.74902 0.795026 1
1 0.74902 0.795026 1
1 0.74902 0.795026 1
1 0.74902 0.795026 1
1 0.74902 0.795026 1
1 0.74902 0.795026 1
1 0.74902 0.795026 1
1 0.74902 0.795026 1
1 0.74902 0.795026 1
1 0.74902 0.795026 1
1 0.74902 0.795026 1
1 0.74902 0.795026 1
1 0.74902 0.795026 1
1 0.74902 0.795026 1
1 0.74902 0.795026 1
1 0.74902 0.795026 1
1 0.74902 0.795026 1
1 0.74902 0.795026 1
1 0.74902 0.795026 1
1 0.74902 0.795026 1
1 0.74902 0.795026 1
1 0.74902 0.795026 1
1 0.74902 0.795026 1
1 0.74902 0.795026 1
1 0.74902 0.795026 1
1 0.74902 0.795026 1
1 0.74902 0.795026 1
1 0.74902 0.795026 1
1 0.74902 0.795026 1
1 0.74902 0.795026 1
1 0.74902 0.795026 1
1 0.74902 0.795026 1
1 0.74902 0.795026 1
1 0.74902 0.795026 1
1 0.74902 0.795026 1
1 0.74902 0.795026 1
1 0.74902 0.795026 1
1 0.74902 0.795026 1
1 0.74902 0.795026 1
1 0.74902 0.795026 1
1 0.74902 0.795026 1
1 0.74902 0.795026 1
1 0.74902 0.795026 1
1 0.74902 0.795026 1
1 0.74902 0.795026 1
1 0.74902 0.795026 1
1 0.74902 0.795026 1
1 0.74902 0.795026 1
1 0.74902 0.795026 1
1 0.74902 0.795026 1
1 0.74902 0.795026 1
1 0.74902 0.795026 1
1 0.74902 0.795026 1
1 0.74902 0.795026 1
1 0.74902 0.795026 1
1 0.74902 0.795026 1
1 0.74902 0.795026 1
1 0.74902 0.795026 1
1 0.74902 0.795026 1
1 0.74902 0.795026 1
1 0.74902 0.795026 1
1 0.74902 0.795026 1
1 0.74902 0.795026 1
1 0.74902 0.795026 1
1 0.74902 0.795026 1
1 0.74902 0.795026 1
1 0.74902 0.795026 1
1 0.74902 0.795026 1
1 0.74902 0.795026 1
1 0.74902 0.795026 1
1 0.74902 0.795026 1
1 0.74902 0.795026 1
1 0.74902 0.795026 1
1 0.74902 0.795026 1
1 0.74902 0.795026 1
1 0.74902 0.795026 1
1 0.74902 0.795026 1
1 0.74902 0.795026 1
1 0.74902 0.795026 1
1 0.74902 0.795026 1
1 0.74902 0.795026 1
1 0.74902 0.795026 1
1 0.74902 0.795026 1
1 0.74902 0.795026 1
1 0.74902 0.795026 1
1 0.74902 0.795026 1
1 0.74902 0.795026 1
1 0.74902 0.795026 1
1 0.74902 0.795026 1
1 0.74902 0.795026 1
1 0.74902 0.795026 1
1 0.74902 0.795026 1
1 0.74902 0.795026 1
1 0.74902 0.795026 1
1 0.74902 0.795026 1
1 0.74902 0.795026 1
1 0.74902 0.795026 1
1 0.74902 0.795026 1
1 0.74902 0.795026 1
1 0.74902 0.795026 1
1 0.74902 0.795026 1
1 0.74902 0.795026 1
1 0.74902 0.795026 1
1 0.74902 0.795026 1
1 0.74902 0.795026 1
1 0.74902 0.795026 1
1 0.74902 0.795026 1
1 0.74902 0.795026 1
1 0.74902 0.795026 1
1 0.74902 0.795026 1
1 0.74902 0.795026 1
1 0.74902 0.795026 1
1 0.74902 0.795026 1
1 0.74902 0.795026 1
1 0.74902 0.795026 1
1 0.74902 0.795026 1
1 0.74902 0.795026 1
1 0.74902 0.795026 1
1 0.74902 0.795026 1
1 0.74902 0.795026 1
1 0.74902 0.795026 1
1 0.74902 0.795026 1
1 0.74902 0.795026 1
1 0.74902 0.795026 1
1 0.74902 0.795026 1
1 0.74902 0.795026 1
1 0.74902 0.795026 1
1 0.74902 0.795026 1
1 0.74902 0.795026 1
1 0.74902 0.795026 1
1 0.74902 0.795026 1
1 0.74902 0.795026 1
1 0.74902 0.795026 1
1 0.74902 0.795026 1
1 0.74902 0.795026 1
1 0.74902 0.795026 1
1 0.74902 0.795026 1
1 0.74902 0.795026 1
1 0.74902 0.795026 1
1 0.74902 0.795026 1
1 0.74902 0.795026 1
1 0.74902 0.795026 1
1 0.74902 0.795026 1
1 0.74902 0.795026 1
1 0.74902 0.795026 1
1 0.74902 0.795026 1
1 0.74902 0.795026 1
1 0.74902 0.795026 1
1 0.74902 0.795026 1
1 0.74902 0.795026 1
1 0.74902 0.795026 1
1 0.74902 0.795026 1
1 0.74902 0.795026 1
1 0.74902 0.795026 1
1 0.74902 0.795026 1
1 0.74902 0.795026 1
1 0.74902 0.795026 1
1 0.74902 0.795026 1
1 0.74902 0.795026 1
1 0.74902 0.795026 1
1 0.74902 0.795026 1
1 0.74902 0.795026 1
1 0.74902 0.795026 1
1 0.74902 0.795026 1
1 0.74902 0.795026 1
1 0.74902 0.795026 1
1 0.74902 0.795026 1
1 0.74902 0.795026 1
1 0.74902 0.795026 1
1 0.74902 0.795026 1
1 0.74902 0.795026 1
1 0.74902 0.795026 1
1 0.74902 0.795026 1
1 0.74902 0.795026 1
1 0.74902 0.795026 1
1 0.74902 0.795026 1
1 0.74902 0.795026 1
1 0.74902 0.795026 1
1 0.74902 0.795026 1
1 0.74902 0.795026 1
1 0.74902 0.795026 1
1 0.74902 0.795026 1
1 0.74902 0.795026 1
1 0.74902 0.795026 1
1 0.74902 0.795026 1
1 0.74902 0.795026 1
1 0.74902 0.795026 1
1 0.74902 0.795026 1
1 0.74902 0.795026 1
1 0.74902 0.795026 1
1 0.74902 0.795026 1
1 0.74902 0.795026 1
1 0.74902 0.795026 1
1 0.74902 0.795026 1
1 0.74902 0.795026 1
1 0.74902 0.795026 1
1 0.74902 0.795026 1
1 0.74902 0.795026 1
1 0.74902 0.795026 1
1 0.74902 0.795026 1
1 0.74902 0.795026 1
1 0.74902 0.795026 1
1 0.74902 0.795026 1
1 0.74902 0.795026 1
1 0.74902 0.795026 1
1 0.74902 0.795026 1
1 0.74902 0.795026 1
1 0.74902 0.795026 1
1 0.74902 0.795026 1
1 0.74902 0.795026 1
1 0.74902 0.795026 1
1 0.74902 0.795026 1
1 0.74902 0.795026 1
1 0.74902 0.795026 1
1 0.74902 0.795026 1
1 0.74902 0.795026 1
1 0.74902 0.795026 1
1 0.74902 0.795026 1
1 0.74902 0.795026 1
1 0.74902 0.795026 1
1 0.74902 0.795026 1
1 0.74902 0.795026 1
1 0.74902 0.795026 1
1 0.74902 0.795026 1
1 0.74902 0.795026 1
1 0.74902 0.795026 1
1 0.74902 0.795026 1
1 0.74902 0.795026 1
1 0.74902 0.795026 1
1 0.74902 0.795026 1
1 0.74902 0.795026 1
1 0.74902 0.795026 1
1 0.74902 0.795026 1
1 0.74902 0.795026 1
1 0.74902 0.795026 1
1 0.74902 0.795026 1
1 0.74902 0.795026 1
1 0.74902 0.795026 1
1 0.74902 0.795026 1
1 0.74902 0.795026 1
1 0.74902 0.795026 1
1 0.74902 0.795026 1
1 0.74902 0.795026 1
1 0.74902 0.795026 1
1 0.74902 0.795026 1
1 0.74902 0.795026 1
1 0.74902 0.795026 1
1 0.74902 0.795026 1
1 0.74902 0.795026 1
1 0.74902 0.795026 1
1 0.74902 0.795026 1
1 0.74902 0.795026 1
1 0.74902 0.795026 1
1 0.74902 0.795026 1
1 0.74902 0.795026 1
1 0.74902 0.795026 1
1 0.74902 0.795026 1
1 0.74902 0.795026 1
1 0.74902 0.795026 1
1 0.74902 0.795026 1
1 0.74902 0.795026 1
1 0.74902 0.795026 1
1 0.74902 0.795026 1
1 0.74902 0.795026 1
1 0.74902 0.795026 1
1 0.74902 0.795026 1
1 0.74902 0.795026 1
1 0.74902 0.795026 1
1 0.74902 0.795026 1
1 0.74902 0.795026 1
1 0.74902 0.795026 1
1 0.74902 0.795026 1
1 0.74902 0.795026 1
1 0.74902 0.795026 1
1 0.74902 0.795026 1
1 0.74902 0.795026 1
1 0.74902 0.795026 1
1 0.74902 0.795026 1
1 0.74902 0.795026 1
1 0.74902 0.795026 1
1 0.74902 0.795026 1
1 0.74902 0.795026 1
1 0.74902 0.795026 1
1 0.74902 0.795026 1
1 0.74902 0.795026 1
1 0.74902 0.795026 1
1 0.74902 0.795026 1
1 0.74902 0.795026 1
1 0.74902 0.795026 1
1 0.74902 0.795026 1
1 0.74902 0.795026 1
1 0.74902 0.795026 1
1 0.74902 0.795026 1
1 0.74902 0.795026 1
1 0.74902 0.795026 1
1 0.74902 0.795026 1
1 0.74902 0.795026 1
1 0.74902 0.795026 1
1 0.74902 0.795026 1
1 0.74902 0.795026 1
1 0.74902 0.795026 1
1 0.74902 0.795026 1
1 0.74902 0.795026 1
1 0.74902 0.795026 1
1 0.74902 0.795026 1
1 0.74902 0.795026 1
1 0.74902 0.795026 1
1 0.74902 0.795026 1
1 0.74902 0.795026 1
1 0.74902 0.795026 1
1 0.74902 0.795026 1
1 0.74902 0.795026 1
1 0.74902 0.795026 1
1 0.74902 0.795026 1
1 0.74902 0.795026 1
1 0.74902 0.795026 1
1 0.74902 0.795026 1
1 0.74902 0.795026 1
1 0.74902 0.795026 1
1 0.74902 0.795026 1
1 0.74902 0.795026 1
1 0.74902 0.795026 1
1 0.74902 0.795026 1
1 0.74902 0.795026 1
1 0.74902 0.795026 1
1 0.74902 0.795026 1
1 0.74902 0.795026 1
1 0.74902 0.795026 1
1 0.74902 0.795026 1
1 0.74902 0.795026 1
1 0.74902 0.795026 1
1 0.74902 0.795026 1
1 0.74902 0.795026 1
1 0.74902 0.795026 1
1 0.74902 0.795026 1
1 0.74902 0.795026 1
1 0.74902 0.795026 1
1 0.74902 0.795026 1
1 0.74902 0.795026 1
1 0.74902 0.795026 1
1 0.74902 0.795026 1
1 0.74902 0.795026 1
1 0.74902 0.795026 1
1 0.74902 0.795026 1
1 0.74902 0.795026 1
1 0.74902 0.795026 1
1 0.74902 0.795026 1
1 0.74902 0.795026 1
1 0.74902 0.795026 1
1 0.74902 0.795026 1
1 0.74902 0.795026 1
1 0.74902 0.795026 1
1 0.74902 0.795026 1
1 0.74902 0.795026 1
1 0.74902 0.795026 1
1 0.74902 0.795026 1
1 0.74902 0.795026 1
1 0.74902 0.795026 1
1 0.74902 0.795026 1
1 0.74902 0.795026 1
1 0.74902 0.795026 1
1 0.74902 0.795026 1
1 0.74902 0.795026 1
1 0.74902 0.795026 1
1 0.74902 0.795026 1
1 0.74902 0.795026 1
1 0.74902 0.795026 1
1 0.74902 0.795026 1
1 0.74902 0.795026 1
1 0.74902 0.795026 1
1 0.74902 0.795026 1
1 0.74902 0.795026 1
1 0.74902 0.795026 1
1 0.74902 0.795026 1
1 0.74902 0.795026 1
1 0.74902 0.795026 1
1 0.74902 0.795026 1
1 0.74902 0.795026 1
1 0.74902 0.795026 1
1 0.74902 0.795026 1
1 0.74902 0.795026 1
1 0.74902 0.795026 1
1 0.74902 0.795026 1
1 0.74902 0.795026 1
1 0.74902 0.795026 1
1 0.74902 0.795026 1
1 0.74902 0.795026 1
1 0.74902 0.795026 1
1 0.74902 0.795026 1
1 0.74902 0.795026 1
1 0.74902 0.795026 1
1 0.74902 0.795026 1
1 0.74902 0.795026 1
1 0.74902 0.795026 1
1 0.74902 0.795026 1
1 0.74902 0.795026 1
1 0.74902 0.795026 1
1 0.74902 0.795026 1
1 0.74902 0.795026 1
1 0.74902 0.795026 1
1 0.74902 0.795026 1
1 0.74902 0.795026 1
1 0.74902 0.795026 1
1 0.74902 0.795026 1
1 0.74902 0.795026 1
1 0.74902 0.795026 1
1 0.74902 0.795026 1
1 0.74902 0.795026 1
1 0.74902 0.795026 1
1 0.74902 0.795026 1
1 0.74902 0.795026 1
1 0.74902 0.795026 1
1 0.74902 0.795026 1
1 0.74902 0.795026 1
1 0.74902 0.795026 1
1 0.74902 0.795026 1
1 0.74902 0.795026 1
1 0.74902 0.795026 1
1 0.74902 0.795026 1
1 0.74902 0.795026 1
1 0.74902 0.795026 1
1 0.74902 0.795026 1
1 0.74902 0.795026 1
1 0.74902 0.795026 1
1 0.74902 0.795026 1
1 0.74902 0.795026 1
1 0.74902 0.795026 1
1 0.74902 0.795026 1
1 0.74902 0.795026 1
1 0.74902 0.795026 1
1 0.74902 0.795026 1
1 0.74902 0.795026 1
1 0.74902 0.795026 1
1 0.74902 0.795026 1
1 0.74902 0.795026 1
1 0.74902 0.795026 1
1 0.74902 0.795026 1
1 0.74902 0.795026 1
1 0.74902 0.795026 1
1 0.74902 0.795026 1
1 0.74902 0.795026 1
1 0.74902 0.795026 1
1 0.74902 0.795026 1
1 0.74902 0.795026 1
1 0.74902 0.795026 1
1 0.74902 0.795026 1
1 0.74902 0.795026 1
1 0.74902 0.795026 1
1 0.74902 0.795026 1
1 0.74902 0.795026 1
1 0.74902 0.795026 1
1 0.74902 0.795026 1
1 0.74902 0.795026 1
1 0.74902 0.795026 1
1 0.74902 0.795026 1
1 0.74902 0.795026 1
1 0.74902 0.795026 1
1 0.74902 0.795026 1
1 0.74902 0.795026 1
1 0.74902 0.795026 1
1 0.74902 0.795026 1
1 0.74902 0.795026 1
1 0.74902 0.795026 1
1 0.74902 0.795026 1
1 0.74902 0.795026 1
1 0.74902 0.795026 1
1 0.74902 0.795026 1
1 0.74902 0.795026 1
1 0.74902 0.795026 1
1 0.74902 0.795026 1
1 0.74902 0.795026 1
1 0.74902 0.795026 1
1 0.74902 0.795026 1
1 0.74902 0.795026 1
1 0.74902 0.795026 1
1 0.74902 0.795026 1
1 0.74902 0.795026 1
1 0.74902 0.795026 1
1 0.74902 0.795026 1
1 0.74902 0.795026 1
1 0.74902 0.795026 1
1 0.74902 0.795026 1
1 0.74902 0.795026 1
1 0.74902 0.795026 1
1 0.74902 0.795026 1
1 0.74902 0.795026 1
1 0.74902 0.795026 1
1 0.74902 0.795026 1
1 0.74902 0.795026 1
1 0.74902 0.795026 1
1 0.74902 0.795026 1
1 0.74902 0.795026 1
1 0.74902 0.795026 1
1 0.74902 0.795026 1
1 0.74902 0.795026 1
1 0.74902 0.795026 1
1 0.74902 0.795026 1
1 0.74902 0.795026 1
1 0.74902 0.795026 1
1 0.74902 0.795026 1
1 0.74902 0.795026 1
1 0.74902 0.795026 1
1 0.74902 0.795026 1
1 0.74902 0.795026 1
1 0.74902 0.795026 1
1 0.74902 0.795026 1
1 0.74902 0.795026 1
1 0.74902 0.795026 1
1 0.74902 0.795026 1
1 0.74902 0.795026 1
1 0.74902 0.795026 1
1 0.74902 0.795026 1
1 0.74902 0.795026 1
1 0.74902 0.795026 1
1 0.74902 0.795026 1
1 0.74902 0.795026 1
1 0.74902 0.795026 1
1 0.74902 0.795026 1
1 0.74902 0.795026 1
1 0.74902 0.795026 1
1 0.74902 0.795026 1
1 0.74902 0.795026 1
1 0.74902 0.795026 1
1 0.74902 0.795026 1
1 0.74902 0.795026 1
1 0.74902 0.795026 1
1 0.74902 0.795026 1
1 0.74902 0.795026 1
1 0.74902 0.795026 1
1 0.74902 0.795026 1
1 0.74902 0.795026 1
1 0.74902 0.795026 1
1 0.74902 0.795026 1
1 0.74902 0.795026 1
1 0.74902 0.795026 1
1 0.74902 0.795026 1
1 0.74902 0.795026 1
1 0.74902 0.795026 1
1 0.74902 0.795026 1
1 0.74902 0.795026 1
1 0.74902 0.795026 1
1 0.74902 0.795026 1
1 0.74902 0.795026 1
1 0.74902 0.795026 1
1 0.74902 0.795026 1
1 0.74902 0.795026 1
1 0.74902 0.795026 1
1 0.74902 0.795026 1
1 0.74902 0.795026 1
1 0.74902 0.795026 1
1 0.74902 0.795026 1
1 0.74902 0.795026 1
1 0.74902 0.795026 1
1 0.74902 0.795026 1
1 0.74902 0.795026 1
1 0.74902 0.795026 1
1 0.74902 0.795026 1
1 0.74902 0.795026 1
1 0.74902 0.795026 1
1 0.74902 0.795026 1
1 0.74902 0.795026 1
1 0.74902 0.795026 1
1 0.74902 0.795026 1
1 0.74902 0.795026 1
1 0.74902 0.795026 1
1 0.74902 0.795026 1
1 0.74902 0.795026 1
1 0.74902 0.795026 1
1 0.74902 0.795026 1
1 0.74902 0.795026 1
1 0.74902 0.795026 1
1 0.74902 0.795026 1
1 0.74902 0.795026 1
1 0.74902 0.795026 1
1 0.74902 0.795026 1
1 0.74902 0.795026 1
1 0.74902 0.795026 1
1 0.74902 0.795026 1
1 0.74902 0.795026 1
1 0.74902 0.795026 1
1 0.74902 0.795026 1
1 0.74902 0.795026 1
1 0.74902 0.795026 1
1 0.74902 0.795026 1
1 0.74902 0.795026 1
1 0.74902 0.795026 1
1 0.74902 0.795026 1
1 0.74902 0.795026 1
1 0.74902 0.795026 1
1 0.74902 0.795026 1
1 0.74902 0.795026 1
1 0.74902 0.795026 1
1 0.74902 0.795026 1
1 0.74902 0.795026 1
1 0.74902 0.795026 1
1 0.74902 0.795026 1
1 0.74902 0.795026 1
1 0.74902 0.795026 1
1 0.74902 0.795026 1
1 0.74902 0.795026 1
1 0.74902 0.795026 1
1 0.74902 0.795026 1
1 0.74902 0.795026 1
1 0.74902 0.795026 1
1 0.74902 0.795026 1
1 0.74902 0.795026 1
1 0.74902 0.795026 1
1 0.74902 0.795026 1
1 0.74902 0.795026 1
1 0.74902 0.795026 1
1 0.74902 0.795026 1
1 0.74902 0.795026 1
1 0.74902 0.795026 1
1 0.74902 0.795026 1
1 0.74902 0.795026 1
1 0.74902 0.795026 1
1 0.74902 0.795026 1
1 0.74902 0.795026 1
1 0.74902 0.795026 1
1 0.74902 0.795026 1
1 0.74902 0.795026 1
1 0.74902 0.795026 1
1 0.74902 0.795026 1
1 0.74902 0.795026 1
1 0.74902 0.795026 1
1 0.74902 0.795026 1
1 0.74902 0.795026 1
1 0.74902 0.795026 1
1 0.74902 0.795026 1
1 0.74902 0.795026 1
1 0.74902 0.795026 1
1 0.74902 0.795026 1
1 0.74902 0.795026 1
1 0.74902 0.795026 1
1 0.74902 0.795026 1
1 0.74902 0.795026 1
1 0.74902 0.795026 1
1 0.74902 0.795026 1
1 0.74902 0.795026 1
1 0.74902 0.795026 1
1 0.74902 0.795026 1
1 0.74902 0.795026 1
1 0.74902 0.795026 1
1 0.74902 0.795026 1
1 0.74902 0.795026 1
1 0.74902 0.795026 1
1 0.74902 0.795026 1
1 0.74902 0.795026 1
1 0.74902 0.795026 1
1 0.74902 0.795026 1
1 0.74902 0.795026 1
1 0.74902 0.795026 1
1 0.74902 0.795026 1
1 0.74902 0.795026 1
1 0.74902 0.795026 1
1 0.74902 0.795026 1
1 0.74902 0.795026 1
1 0.74902 0.795026 1
1 0.74902 0.795026 1
1 0.74902 0.795026 1
1 0.74902 0.795026 1
1 0.74902 0.795026 1
1 0.74902 0.795026 1
1 0.74902 0.795026 1
1 0.74902 0.795026 1
1 0.74902 0.795026 1
1 0.74902 0.795026 1
1 0.74902 0.795026 1
1 0.74902 0.795026 1
1 0.74902 0.795026 1
1 0.74902 0.795026 1
1 0.74902 0.795026 1
1 0.74902 0.795026 1
1 0.74902 0.795026 1
1 0.74902 0.795026 1
1 0.74902 0.795026 1
1 0.74902 0.795026 1
1 0.74902 0.795026 1
1 0.74902 0.795026 1
1 0.74902 0.795026 1
1 0.74902 0.795026 1
1 0.74902 0.795026 1
1 0.74902 0.795026 1
1 0.74902 0.795026 1
1 0.74902 0.795026 1
1 0.74902 0.795026 1
1 0.74902 0.795026 1
1 0.74902 0.795026 1
1 0.74902 0.795026 1
1 0.74902 0.795026 1
1 0.74902 0.795026 1
1 0.74902 0.795026 1
1 0.74902 0.795026 1
1 0.74902 0.795026 1
1 0.74902 0.795026 1
1 0.74902 0.795026 1
1 0.74902 0.795026 1
1 0.74902 0.795026 1
1 0.74902 0.795026 1
1 0.74902 0.795026 1
1 0.74902 0.795026 1
1 0.74902 0.795026 1
1 0.74902 0.795026 1
1 0.74902 0.795026 1
1 0.74902 0.795026 1
1 0.74902 0.795026 1
1 0.74902 0.795026 1
1 0.74902 0.795026 1
1 0.74902 0.795026 1
1 0.74902 0.795026 1
1 0.74902 0.795026 1
1 0.74902 0.795026 1
1 0.74902 0.795026 1
1 0.74902 0.795026 1
1 0.74902 0.795026 1
1 0.74902 0.795026 1
1 0.74902 0.795026 1
1 0.74902 0.795026 1
1 0.74902 0.795026 1
1 0.74902 0.795026 1
1 0.74902 0.795026 1
1 0.74902 0.795026 1
1 0.74902 0.795026 1
1 0.74902 0.795026 1
1 0.74902 0.795026 1
1 0.74902 0.795026 1
1 0.74902 0.795026 1
1 0.74902 0.795026 1
1 0.74902 0.795026 1
1 0.74902 0.795026 1
1 0.74902 0.795026 1
1 0.74902 0.795026 1
1 0.74902 0.795026 1
1 0.74902 0.795026 1
1 0.74902 0.795026 1
1 0.74902 0.795026 1
1 0.74902 0.795026 1
1 0.74902 0.795026 1
1 0.74902 0.795026 1
1 0.74902 0.795026 1
1 0.74902 0.795026 1