# vtk DataFile Version 3.0
Gocad TSurf to VTK
ASCII
DATASET POLYDATA
POINTS 678 float
21577525.000 4551787.500 -1315.000
21577225.000 4552322.500 -1501.250
21577600.000 4552525.000 -1295.000
21577425.000 4552690.000 -1431.250
21577775.000 4552242.500 -1125.000
21577400.000 4551560.000 -1410.000
21577075.000 4551807.500 -1383.750
21577575.000 4551590.000 -1318.750
21577750.000 4551620.000 -1227.500
21577575.000 4551587.500 -1318.750
21577750.000 4551615.000 -1227.500
21577925.000 4551642.500 -1136.250
21578100.000 4551670.000 -1045.000
21578100.000 4551680.000 -1045.000
21578150.000 4551665.000 -1066.250
21578300.000 4552330.000 -1185.000
21578150.000 4551657.500 -1066.250
21578200.000 4551645.000 -1087.500
21578250.000 4551632.500 -1108.750
21578300.000 4551620.000 -1130.000
21578375.000 4552137.500 -1122.500
21578450.000 4552440.000 -1167.500
21578375.000 4551605.000 -1081.250
21578450.000 4551945.000 -1060.000
21578375.000 4551602.500 -1081.250
21578450.000 4551585.000 -1032.500
21578525.000 4551567.500 -983.750
21578600.000 4551550.000 -935.000
21578750.000 4551625.000 -1001.250
21578700.000 4551512.500 -993.750
21578800.000 4551465.000 -1052.500
21578700.000 4551505.000 -993.750
21578800.000 4551460.000 -1052.500
21578900.000 4551415.000 -1111.250
21579000.000 4551370.000 -1170.000
21578900.000 4551690.000 -1067.500
21579250.000 4551700.000 -1192.500
21579200.000 4551355.000 -1170.000
21579100.000 4551952.500 -1157.500
21579575.000 4551797.500 -1305.000
21579000.000 4552085.000 -1115.000
21579300.000 4552290.000 -1380.000
21579050.000 4552320.000 -1205.000
21579500.000 4552040.000 -1360.000
21579475.000 4552335.000 -1485.000
21579825.000 4552425.000 -1695.000
21579500.000 4552890.000 -1760.000
21579750.000 4552680.000 -1780.000
21579350.000 4552860.000 -1598.750
21579100.000 4552530.000 -1247.500
21579375.000 4552967.500 -1637.500
21579250.000 4553045.000 -1515.000
21579400.000 4553065.000 -1678.750
21579550.000 4553545.000 -1978.750
21579300.000 4553240.000 -1597.500
21579875.000 4553455.000 -2220.000
21579550.000 4553707.500 -2052.500
21579725.000 4552975.000 -1920.000
21580175.000 4553145.000 -2240.000
21580000.000 4552470.000 -1800.000
21580400.000 4553230.000 -2400.000
21580225.000 4553305.000 -2340.000
21580225.000 4552525.000 -1817.500
21580650.000 4552960.000 -2135.000
21580300.000 4552315.000 -1652.500
21580675.000 4552635.000 -1852.500
21579925.000 4551882.500 -1381.250
21580150.000 4551975.000 -1422.500
21579700.000 4551790.000 -1340.000
21579825.000 4551750.000 -1308.750
21579350.000 4551460.000 -1177.500
21579400.000 4551340.000 -1170.000
21579300.000 4551347.500 -1170.000
21579300.000 4551347.500 -1170.000
21579750.000 4551632.500 -1260.000
21579525.000 4551295.000 -1132.500
21579800.000 4551475.000 -1180.000
21579525.000 4551295.000 -1132.500
21579650.000 4551250.000 -1095.000
21579775.000 4551205.000 -1057.500
21579900.000 4551160.000 -1020.000
21580200.000 4551630.000 -1215.000
21579950.000 4551710.000 -1277.500
21580025.000 4551180.000 -1008.750
21580300.000 4551435.000 -1095.000
21580200.000 4551055.000 -915.000
21580275.000 4551220.000 -986.250
21580300.000 4551020.000 -880.000
21580350.000 4551337.500 -1035.000
21580325.000 4551607.500 -1225.000
21580575.000 4551562.500 -1245.000
21580675.000 4551695.000 -1317.500
21580775.000 4551432.500 -1237.500
21580850.000 4551142.500 -1132.500
21580550.000 4550985.000 -1025.000
21580975.000 4550955.000 -1157.500
21581200.000 4551555.000 -1445.000
21580700.000 4550730.000 -1075.000
21580850.000 4550550.000 -1075.000
21580625.000 4550857.500 -1050.000
21580600.000 4550802.500 -1026.250
21580500.000 4550875.000 -977.500
21580900.000 4550490.000 -1075.000
21580850.000 4550550.000 -1075.000
21581300.000 4550930.000 -1230.000
21581300.000 4551190.000 -1320.000
21581050.000 4550520.000 -1110.000
21581400.000 4550770.000 -1222.500
21580925.000 4550420.000 -1085.000
21580950.000 4550350.000 -1095.000
21580925.000 4550420.000 -1085.000
21581350.000 4550580.000 -1180.000
21580975.000 4550280.000 -1105.000
21581000.000 4550210.000 -1115.000
21581500.000 4550610.000 -1215.000
21581150.000 4550157.500 -1146.250
21581575.000 4550152.500 -1233.750
21581025.000 4550037.500 -1108.750
21581050.000 4549865.000 -1102.500
21581075.000 4549692.500 -1096.250
21581800.000 4549675.000 -1225.000
21581950.000 4550075.000 -1338.750
21581100.000 4549520.000 -1090.000
21581325.000 4549477.500 -1120.000
21581775.000 4549392.500 -1180.000
21581100.000 4549227.500 -1113.750
21581550.000 4549130.000 -1127.500
21581100.000 4549227.500 -1113.750
21581100.000 4548935.000 -1137.500
21581100.000 4548642.500 -1161.250
21581700.000 4549000.000 -1140.000
21581100.000 4548350.000 -1185.000
21582000.000 4549350.000 -1210.000
21582250.000 4549865.000 -1336.250
21582400.000 4549760.000 -1335.000
21582700.000 4550020.000 -1490.000
21582500.000 4550315.000 -1582.500
21582825.000 4550452.500 -1776.250
21582475.000 4550557.500 -1708.750
21583000.000 4550400.000 -1810.000
21582875.000 4550500.000 -1842.500
21582750.000 4550600.000 -1875.000
21582850.000 4550700.000 -1992.500
21583400.000 4550820.000 -2200.000
21583275.000 4550907.500 -2236.250
21582875.000 4550955.000 -2181.250
21583425.000 4551032.500 -2316.250
21583025.000 4551082.500 -2308.750
21583900.000 4551330.000 -2550.000
21583800.000 4551415.000 -2578.750
21583450.000 4551245.000 -2432.500
21583900.000 4551340.000 -2550.000
21583900.000 4551685.000 -2705.000
21583600.000 4551585.000 -2636.250
21584400.000 4551830.000 -2745.000
21584275.000 4551880.000 -2773.750
21584025.000 4551980.000 -2831.250
21584375.000 4551967.500 -2801.250
21584750.000 4552357.500 -2876.250
21584325.000 4552242.500 -2913.750
21584900.000 4552350.000 -2845.000
21584800.000 4552550.000 -2950.000
21585150.000 4552742.500 -2908.750
21584700.000 4552750.000 -3055.000
21585300.000 4552740.000 -2860.000
21585225.000 4552817.500 -2905.000
21585150.000 4552895.000 -2950.000
21585375.000 4552982.500 -2912.500
21585250.000 4553005.000 -2955.000
21585500.000 4552960.000 -2870.000
21585500.000 4552970.000 -2870.000
21585375.000 4552990.000 -2912.500
21585250.000 4553010.000 -2955.000
21585125.000 4553027.500 -2997.500
21585125.000 4553030.000 -2997.500
21585000.000 4553050.000 -3040.000
21585075.000 4552972.500 -2995.000
21584850.000 4553070.000 -2967.500
21584625.000 4552845.000 -2978.750
21584325.000 4552550.000 -2915.000
21584700.000 4553090.000 -2895.000
21584550.000 4553110.000 -2822.500
21584475.000 4553035.000 -2826.250
21584375.000 4552890.000 -2805.000
21584400.000 4553130.000 -2750.000
21584400.000 4553060.000 -2750.000
21584250.000 4553220.000 -2760.000
21584000.000 4552770.000 -2720.000
21583900.000 4553130.000 -2755.000
21584075.000 4552672.500 -2782.500
21583850.000 4552492.500 -2730.000
21584350.000 4552720.000 -2860.000
21584150.000 4552575.000 -2845.000
21584150.000 4552417.500 -2890.000
21583800.000 4552280.000 -2755.000
21583775.000 4552087.500 -2783.750
21583750.000 4552405.000 -2702.500
21583650.000 4552697.500 -2685.000
21583450.000 4552695.000 -2685.000
21583875.000 4552877.500 -2737.500
21583600.000 4552865.000 -2720.000
21583750.000 4552985.000 -2755.000
21583625.000 4553092.500 -2772.500
21583550.000 4553032.500 -2755.000
21583325.000 4552777.500 -2702.500
21583500.000 4553200.000 -2790.000
21583200.000 4552860.000 -2720.000
21583850.000 4553310.000 -2772.500
21583800.000 4553490.000 -2790.000
21583950.000 4553382.500 -2780.000
21583650.000 4553550.000 -2741.250
21583375.000 4553272.500 -2731.250
21583150.000 4553017.500 -2678.750
21583500.000 4553610.000 -2692.500
21583350.000 4553465.000 -2692.500
21583250.000 4553345.000 -2672.500
21583350.000 4553670.000 -2643.750
21583275.000 4553597.500 -2643.750
21583125.000 4553417.500 -2613.750
21583200.000 4553730.000 -2595.000
21583000.000 4553490.000 -2555.000
21583025.000 4553760.000 -2490.000
21582850.000 4553537.500 -2467.500
21582700.000 4553180.000 -2510.000
21582850.000 4553790.000 -2385.000
21582750.000 4553670.000 -2365.000
21582700.000 4553585.000 -2380.000
21582675.000 4553820.000 -2280.000
21582625.000 4553760.000 -2270.000
21582550.000 4553632.500 -2292.500
21582500.000 4553850.000 -2175.000
21582400.000 4553680.000 -2205.000
21582225.000 4553747.500 -2188.750
21582150.000 4553620.000 -2211.250
21582075.000 4553085.000 -2198.750
21581950.000 4553645.000 -2202.500
21581900.000 4553560.000 -2217.500
21581850.000 4553290.000 -2177.500
21581675.000 4553542.500 -2216.250
21581650.000 4553500.000 -2223.750
21581400.000 4553440.000 -2230.000
21581500.000 4553100.000 -2155.000
21581200.000 4553080.000 -2065.000
21581250.000 4552725.000 -1975.000
21581200.000 4553475.000 -2335.000
21580900.000 4553330.000 -2357.500
21581000.000 4553510.000 -2440.000
21580750.000 4553455.000 -2503.750
21580600.000 4553192.500 -2316.250
21580800.000 4553545.000 -2545.000
21580600.000 4553580.000 -2650.000
21580375.000 4553605.000 -2545.000
21580150.000 4553630.000 -2440.000
21580050.000 4553380.000 -2280.000
21579925.000 4553655.000 -2335.000
21579875.000 4553567.500 -2272.500
21579700.000 4553680.000 -2230.000
21581100.000 4552520.000 -1890.000
21581650.000 4552587.500 -2058.750
21580675.000 4552087.500 -1516.250
21580825.000 4551942.500 -1538.750
21580375.000 4552067.500 -1463.750
21581400.000 4552055.000 -1812.500
21581550.000 4551645.000 -1673.750
21581425.000 4552280.000 -1931.250
21581750.000 4552242.500 -2016.250
21581700.000 4552415.000 -2037.500
21581875.000 4551677.500 -1883.750
21581950.000 4552062.500 -2061.250
21581650.000 4551415.000 -1591.250
21581400.000 4551412.500 -1445.000
21582000.000 4551650.000 -1940.000
21581825.000 4551280.000 -1598.750
21582250.000 4552047.500 -2193.750
21582400.000 4552040.000 -2260.000
21582300.000 4552115.000 -2232.500
21582500.000 4551795.000 -2177.500
21582450.000 4551575.000 -2056.250
21583025.000 4552092.500 -2446.250
21582950.000 4552215.000 -2477.500
21582600.000 4551550.000 -2095.000
21583050.000 4551770.000 -2397.500
21582200.000 4551220.000 -1745.000
[...]
POINT_DATA 678
COLOR_SCALARS GocadColor 4
0 0.392157 0 1
0 0.392157 0 1
0 0.392157 0 1
0 0.392157 0 1
0 0.392157 0 1
0 0.392157 0 1
0 0.392157 0 1
0 0.392157 0 1
0 0.392157 0 1
0 0.392157 0 1
0 0.392157 0 1
0 0.392157 0 1
0 0.392157 0 1
0 0.392157 0 1
0 0.392157 0 1
0 0.392157 0 1
0 0.392157 0 1
0 0.392157 0 1
0 0.392157 0 1
0 0.392157 0 1
0 0.392157 0 1
0 0.392157 0 1
0 0.392157 0 1
0 0.392157 0 1
0 0.392157 0 1
0 0.392157 0 1
0 0.392157 0 1
0 0.392157 0 1
0 0.392157 0 1
0 0.392157 0 1
0 0.392157 0 1
0 0.392157 0 1
0 0.392157 0 1
0 0.392157 0 1
0 0.392157 0 1
0 0.392157 0 1
0 0.392157 0 1
0 0.392157 0 1
0 0.392157 0 1
0 0.392157 0 1
0 0.392157 0 1
0 0.392157 0 1
0 0.392157 0 1
0 0.392157 0 1
0 0.392157 0 1
0 0.392157 0 1
0 0.392157 0 1
0 0.392157 0 1
0 0.392157 0 1
0 0.392157 0 1
0 0.392157 0 1
0 0.392157 0 1
0 0.392157 0 1
0 0.392157 0 1
0 0.392157 0 1
0 0.392157 0 1
0 0.392157 0 1
0 0.392157 0 1
0 0.392157 0 1
0 0.392157 0 1
0 0.392157 0 1
0 0.392157 0 1
0 0.392157 0 1
0 0.392157 0 1
0 0.392157 0 1
0 0.392157 0 1
0 0.392157 0 1
0 0.392157 0 1
0 0.392157 0 1
0 0.392157 0 1
0 0.392157 0 1
0 0.392157 0 1
0 0.392157 0 1
0 0.392157 0 1
0 0.392157 0 1
0 0.392157 0 1
0 0.392157 0 1
0 0.392157 0 1
0 0.392157 0 1
0 0.392157 0 1
0 0.392157 0 1
0 0.392157 0 1
0 0.392157 0 1
0 0.392157 0 1
0 0.392157 0 1
0 0.392157 0 1
0 0.392157 0 1
0 0.392157 0 1
0 0.392157 0 1
0 0.392157 0 1
0 0.392157 0 1
0 0.392157 0 1
0 0.392157 0 1
0 0.392157 0 1
0 0.392157 0 1
0 0.392157 0 1
0 0.392157 0 1
0 0.392157 0 1
0 0.392157 0 1
0 0.392157 0 1
0 0.392157 0 1
0 0.392157 0 1
0 0.392157 0 1
0 0.392157 0 1
0 0.392157 0 1
0 0.392157 0 1
0 0.392157 0 1
0 0.392157 0 1
0 0.392157 0 1
0 0.392157 0 1
0 0.392157 0 1
0 0.392157 0 1
0 0.392157 0 1
0 0.392157 0 1
0 0.392157 0 1
0 0.392157 0 1
0 0.392157 0 1
0 0.392157 0 1
0 0.392157 0 1
0 0.392157 0 1
0 0.392157 0 1
0 0.392157 0 1
0 0.392157 0 1
0 0.392157 0 1
0 0.392157 0 1
0 0.392157 0 1
0 0.392157 0 1
0 0.392157 0 1
0 0.392157 0 1
0 0.392157 0 1
0 0.392157 0 1
0 0.392157 0 1
0 0.392157 0 1
0 0.392157 0 1
0 0.392157 0 1
0 0.392157 0 1
0 0.392157 0 1
0 0.392157 0 1
0 0.392157 0 1
0 0.392157 0 1
0 0.392157 0 1
0 0.392157 0 1
0 0.392157 0 1
0 0.392157 0 1
0 0.392157 0 1
0 0.392157 0 1
0 0.392157 0 1
0 0.392157 0 1
0 0.392157 0 1
0 0.392157 0 1
0 0.392157 0 1
0 0.392157 0 1
0 0.392157 0 1
0 0.392157 0 1
0 0.392157 0 1
0 0.392157 0 1
0 0.392157 0 1
0 0.392157 0 1
0 0.392157 0 1
0 0.392157 0 1
0 0.392157 0 1
0 0.392157 0 1
0 0.392157 0 1
0 0.392157 0 1
0 0.392157 0 1
0 0.392157 0 1
0 0.392157 0 1
0 0.392157 0 1
0 0.392157 0 1
0 0.392157 0 1
0 0.392157 0 1
0 0.392157 0 1
0 0.392157 0 1
0 0.392157 0 1
0 0.392157 0 1
0 0.392157 0 1
0 0.392157 0 1
0 0.392157 0 1
0 0.392157 0 1
0 0.392157 0 1
0 0.392157 0 1
0 0.392157 0 1
0 0.392157 0 1
0 0.392157 0 1
0 0.392157 0 1
0 0.392157 0 1
0 0.392157 0 1
0 0.392157 0 1
0 0.392157 0 1
0 0.392157 0 1
0 0.392157 0 1
0 0.392157 0 1
0 0.392157 0 1
0 0.392157 0 1
0 0.392157 0 1
0 0.392157 0 1
0 0.392157 0 1
0 0.392157 0 1
0 0.392157 0 1
0 0.392157 0 1
0 0.392157 0 1
0 0.392157 0 1
0 0.392157 0 1
0 0.392157 0 1
0 0.392157 0 1
0 0.392157 0 1
0 0.392157 0 1
0 0.392157 0 1
0 0.392157 0 1
0 0.392157 0 1
0 0.392157 0 1
0 0.392157 0 1
0 0.392157 0 1
0 0.392157 0 1
0 0.392157 0 1
0 0.392157 0 1
0 0.392157 0 1
0 0.392157 0 1
0 0.392157 0 1
0 0.392157 0 1
0 0.392157 0 1
0 0.392157 0 1
0 0.392157 0 1
0 0.392157 0 1
0 0.392157 0 1
0 0.392157 0 1
0 0.392157 0 1
0 0.392157 0 1
0 0.392157 0 1
0 0.392157 0 1
0 0.392157 0 1
0 0.392157 0 1
0 0.392157 0 1
0 0.392157 0 1
0 0.392157 0 1
0 0.392157 0 1
0 0.392157 0 1
0 0.392157 0 1
0 0.392157 0 1
0 0.392157 0 1
0 0.392157 0 1
0 0.392157 0 1
0 0.392157 0 1
0 0.392157 0 1
0 0.392157 0 1
0 0.392157 0 1
0 0.392157 0 1
0 0.392157 0 1
0 0.392157 0 1
0 0.392157 0 1
0 0.392157 0 1
0 0.392157 0 1
0 0.392157 0 1
0 0.392157 0 1
0 0.392157 0 1
0 0.392157 0 1
0 0.392157 0 1
0 0.392157 0 1
0 0.392157 0 1
0 0.392157 0 1
0 0.392157 0 1
0 0.392157 0 1
0 0.392157 0 1
0 0.392157 0 1
0 0.392157 0 1
0 0.392157 0 1
0 0.392157 0 1
0 0.392157 0 1
0 0.392157 0 1
0 0.392157 0 1
0 0.392157 0 1
0 0.392157 0 1
0 0.392157 0 1
0 0.392157 0 1
0 0.392157 0 1
0 0.392157 0 1
0 0.392157 0 1
0 0.392157 0 1
0 0.392157 0 1
0 0.392157 0 1
0 0.392157 0 1
0 0.392157 0 1
0 0.392157 0 1
0 0.392157 0 1
0 0.392157 0 1
0 0.392157 0 1
0 0.392157 0 1
0 0.392157 0 1
0 0.392157 0 1
0 0.392157 0 1
0 0.392157 0 1
0 0.392157 0 1
0 0.392157 0 1
0 0.392157 0 1
0 0.392157 0 1
0 0.392157 0 1
0 0.392157 0 1
0 0.392157 0 1
0 0.392157 0 1
0 0.392157 0 1
0 0.392157 0 1
0 0.392157 0 1
0 0.392157 0 1
0 0.392157 0 1
0 0.392157 0 1
0 0.392157 0 1
0 0.392157 0 1
0 0.392157 0 1
0 0.392157 0 1
0 0.392157 0 1
0 0.392157 0 1
0 0.392157 0 1
0 0.392157 0 1
0 0.392157 0 1
0 0.392157 0 1
0 0.392157 0 1
0 0.392157 0 1
0 0.392157 0 1
0 0.392157 0 1
0 0.392157 0 1
0 0.392157 0 1
0 0.392157 0 1
0 0.392157 0 1
0 0.392157 0 1
0 0.392157 0 1
0 0.392157 0 1
0 0.392157 0 1
0 0.392157 0 1
0 0.392157 0 1
0 0.392157 0 1
0 0.392157 0 1
0 0.392157 0 1
0 0.392157 0 1
0 0.392157 0 1
0 0.392157 0 1
0 0.392157 0 1
0 0.392157 0 1
0 0.392157 0 1
0 0.392157 0 1
0 0.392157 0 1
0 0.392157 0 1
0 0.392157 0 1
0 0.392157 0 1
0 0.392157 0 1
0 0.392157 0 1
0 0.392157 0 1
0 0.392157 0 1
0 0.392157 0 1
0 0.392157 0 1
0 0.392157 0 1
0 0.392157 0 1
0 0.392157 0 1
0 0.392157 0 1
0 0.392157 0 1
0 0.392157 0 1
0 0.392157 0 1
0 0.392157 0 1
0 0.392157 0 1
0 0.392157 0 1
0 0.392157 0 1
0 0.392157 0 1
0 0.392157 0 1
0 0.392157 0 1
0 0.392157 0 1
0 0.392157 0 1
0 0.392157 0 1
0 0.392157 0 1
0 0.392157 0 1
0 0.392157 0 1
0 0.392157 0 1
0 0.392157 0 1
0 0.392157 0 1
0 0.392157 0 1
0 0.392157 0 1
0 0.392157 0 1
0 0.392157 0 1
0 0.392157 0 1
0 0.392157 0 1
0 0.392157 0 1
0 0.392157 0 1
0 0.392157 0 1
0 0.392157 0 1
0 0.392157 0 1
0 0.392157 0 1
0 0.392157 0 1
0 0.392157 0 1
0 0.392157 0 1
0 0.392157 0 1
0 0.392157 0 1
0 0.392157 0 1
0 0.392157 0 1
0 0.392157 0 1
0 0.392157 0 1
0 0.392157 0 1
0 0.392157 0 1
0 0.392157 0 1
0 0.392157 0 1
0 0.392157 0 1
0 0.392157 0 1
0 0.392157 0 1
0 0.392157 0 1
0 0.392157 0 1
0 0.392157 0 1
0 0.392157 0 1
0 0.392157 0 1
0 0.392157 0 1
0 0.392157 0 1
0 0.392157 0 1
0 0.392157 0 1
0 0.392157 0 1
0 0.392157 0 1
0 0.392157 0 1
0 0.392157 0 1
0 0.392157 0 1
0 0.392157 0 1
0 0.392157 0 1
0 0.392157 0 1
0 0.392157 0 1
0 0.392157 0 1
0 0.392157 0 1
0 0.392157 0 1
0 0.392157 0 1
0 0.392157 0 1
0 0.392157 0 1
0 0.392157 0 1
0 0.392157 0 1
0 0.392157 0 1
0 0.392157 0 1
0 0.392157 0 1
0 0.392157 0 1
0 0.392157 0 1
0 0.392157 0 1
0 0.392157 0 1
0 0.392157 0 1
0 0.392157 0 1
0 0.392157 0 1
0 0.392157 0 1
0 0.392157 0 1
0 0.392157 0 1
0 0.392157 0 1
0 0.392157 0 1
0 0.392157 0 1
0 0.392157 0 1
0 0.392157 0 1
0 0.392157 0 1
0 0.392157 0 1
0 0.392157 0 1
0 0.392157 0 1
0 0.392157 0 1
0 0.392157 0 1
0 0.392157 0 1
0 0.392157 0 1
0 0.392157 0 1
0 0.392157 0 1
0 0.392157 0 1
0 0.392157 0 1
0 0.392157 0 1
0 0.392157 0 1
0 0.392157 0 1
0 0.392157 0 1
0 0.392157 0 1
0 0.392157 0 1
0 0.392157 0 1
0 0.392157 0 1
0 0.392157 0 1
0 0.392157 0 1
0 0.392157 0 1
0 0.392157 0 1
0 0.392157 0 1
0 0.392157 0 1
0 0.392157 0 1
0 0.392157 0 1
0 0.392157 0 1
0 0.392157 0 1
0 0.392157 0 1
0 0.392157 0 1
0 0.392157 0 1
0 0.392157 0 1
0 0.392157 0 1
0 0.392157 0 1
0 0.392157 0 1
0 0.392157 0 1
0 0.392157 0 1
0 0.392157 0 1
0 0.392157 0 1
0 0.392157 0 1
0 0.392157 0 1
0 0.392157 0 1
0 0.392157 0 1
0 0.392157 0 1
0 0.392157 0 1
0 0.392157 0 1
0 0.392157 0 1
0 0.392157 0 1
0 0.392157 0 1
0 0.392157 0 1
0 0.392157 0 1
0 0.392157 0 1
0 0.392157 0 1
0 0.392157 0 1
0 0.392157 0 1
0 0.392157 0 1
0 0.392157 0 1
0 0.392157 0 1
0 0.392157 0 1
0 0.392157 0 1
0 0.392157 0 1
0 0.392157 0 1
0 0.392157 0 1
0 0.392157 0 1
0 0.392157 0 1
0 0.392157 0 1
0 0.392157 0 1
0 0.392157 0 1
0 0.392157 0 1
0 0.392157 0 1
0 0.392157 0 1
0 0.392157 0 1
0 0.392157 0 1
0 0.392157 0 1
0 0.392157 0 1
0 0.392157 0 1
0 0.392157 0 1
0 0.392157 0 1
0 0.392157 0 1
0 0.392157 0 1
0 0.392157 0 1
0 0.392157 0 1
0 0.392157 0 1
0 0.392157 0 1
0 0.392157 0 1
0 0.392157 0 1
0 0.392157 0 1
0 0.392157 0 1
0 0.392157 0 1
0 0.392157 0 1
0 0.392157 0 1
0 0.392157 0 1
0 0.392157 0 1
0 0.392157 0 1
0 0.392157 0 1
0 0.392157 0 1
0 0.392157 0 1
0 0.392157 0 1
0 0.392157 0 1
0 0.392157 0 1
0 0.392157 0 1
0 0.392157 0 1
0 0.392157 0 1
0 0.392157 0 1
0 0.392157 0 1
0 0.392157 0 1
0 0.392157 0 1
0 0.392157 0 1
0 0.392157 0 1
0 0.392157 0 1
0 0.392157 0 1
0 0.392157 0 1
0 0.392157 0 1
0 0.392157 0 1
0 0.392157 0 1
0 0.392157 0 1
0 0.392157 0 1
0 0.392157 0 1
0 0.392157 0 1
0 0.392157 0 1
0 0.392157 0 1
0 0.392157 0 1
0 0.392157 0 1
0 0.392157 0 1
0 0.392157 0 1
0 0.392157 0 1
0 0.392157 0 1
0 0.392157 0 1
0 0.392157 0 1
0 0.392157 0 1
0 0.392157 0 1
0 0.392157 0 1
0 0.392157 0 1
0 0.392157 0 1
0 0.392157 0 1
0 0.392157 0 1
0 0.392157 0 1
0 0.392157 0 1
0 0.392157 0 1
0 0.392157 0 1
0 0.392157 0 1
0 0.392157 0 1
0 0.392157 0 1
0 0.392157 0 1
0 0.392157 0 1
0 0.392157 0 1
0 0.392157 0 1
0 0.392157 0 1
0 0.392157 0 1
0 0.392157 0 1
0 0.392157 0 1
0 0.392157 0 1
0 0.392157 0 1
0 0.392157 0 1
0 0.392157 0 1
0 0.392157 0 1
0 0.392157 0 1
0 0.392157 0 1
0 0.392157 0 1
0 0.392157 0 1
0 0.392157 0 1
0 0.392157 0 1
0 0.392157 0 1
0 0.392157 0 1
0 0.392157 0 1
0 0.392157 0 1
0 0.392157 0 1
0 0.392157 0 1
0 0.392157 0 1
0 0.392157 0 1
0 0.392157 0 1
0 0.392157 0 1
0 0.392157 0 1
0 0.392157 0 1
0 0.392157 0 1
0 0.392157 0 1
0 0.392157 0 1
0 0.392157 0 1
0 0.392157 0 1
0 0.392157 0 1
0 0.392157 0 1
0 0.392157 0 1
0 0.392157 0 1
0 0.392157 0 1
0 0.392157 0 1
0 0.392157 0 1
0 0.392157 0 1
0 0.392157 0 1
0 0.392157 0 1
0 0.392157 0 1
0 0.392157 0 1
0 0.392157 0 1
0 0.392157 0 1
0 0.392157 0 1
0 0.392157 0 1
0 0.392157 0 1
0 0.392157 0 1
0 0.392157 0 1
0 0.392157 0 1
0 0.392157 0 1
0 0.392157 0 1
0 0.392157 0 1
0 0.392157 0 1
0 0.392157 0 1
0 0.392157 0 1
0 0.392157 0 1
0 0.392157 0 1
0 0.392157 0 1
0 0.392157 0 1
0 0.392157 0 1
0 0.392157 0 1
0 0.392157 0 1
0 0.392157 0 1
0 0.392157 0 1
0 0.392157 0 1
0 0.392157 0 1
0 0.392157 0 1
0 0.392157 0 1
0 0.392157 0 1
0 0.392157 0 1
0 0.392157 0 1
0 0.392157 0 1
0 0.392157 0 1
0 0.392157 0 1
0 0.392157 0 1
0 0.392157 0 1
0 0.392157 0 1
0 0.392157 0 1
0 0.392157 0 1
0 0.392157 0 1
0 0.392157 0 1
0 0.392157 0 1

