# vtk DataFile Version 3.0
Gocad TSurf to VTK
ASCII
DATASET POLYDATA
POINTS 91 float
21607575.000 4569597.500 -1887.500
21607550.000 4569165.000 -1947.500
21607850.000 4569475.000 -1835.000
21607675.000 4568887.500 -1951.250
21607875.000 4569800.000 -1812.500
21607425.000 4569442.500 -1943.750
21607375.000 4569362.500 -1967.500
21607300.000 4569720.000 -1940.000
21607700.000 4569990.000 -1840.000
21608025.000 4569912.500 -1771.250
21608150.000 4569685.000 -1757.500
21607900.000 4570140.000 -1785.000
21608050.000 4569610.000 -1785.000
21608275.000 4569457.500 -1743.750
21608125.000 4569352.500 -1782.500
21607800.000 4568610.000 -1955.000
21608400.000 4569230.000 -1730.000
21607525.000 4568647.500 -2022.500
21607450.000 4569005.000 -1995.000
21607600.000 4568290.000 -2050.000
21607900.000 4568372.500 -1965.000
21607750.000 4568132.500 -2036.250
21608075.000 4568610.000 -1863.750
21608000.000 4568135.000 -1975.000
21608525.000 4569075.000 -1695.000
21608350.000 4568610.000 -1772.500
21608525.000 4569075.000 -1695.000
21608650.000 4568920.000 -1660.000
21608775.000 4568765.000 -1625.000
21608900.000 4568610.000 -1590.000
21608200.000 4567660.000 -1995.000
21608100.000 4567897.500 -1985.000
21608700.000 4567800.000 -2065.000
21608350.000 4567350.000 -2252.500
21609125.000 4568107.500 -1998.750
21609200.000 4567940.000 -2135.000
21609575.000 4569260.000 -1408.750
21610250.000 4569905.000 -1227.500
21609575.000 4569257.500 -1408.750
21610925.000 4570560.000 -1046.250
21610925.000 4570552.500 -1046.250
21611600.000 4571200.000 -865.000
21610500.000 4569245.000 -1500.000
21609400.000 4567760.000 -2037.500
21611650.000 4571045.000 -865.000
21611700.000 4570880.000 -865.000
21611750.000 4570715.000 -865.000
21611800.000 4570550.000 -865.000
21611750.000 4570712.500 -865.000
21609600.000 4567580.000 -1940.000
21611500.000 4569845.000 -1081.250
21610100.000 4567655.000 -1835.000
21611875.000 4570340.000 -903.750
21611950.000 4570130.000 -942.500
21612025.000 4569920.000 -981.250
21610900.000 4568435.000 -1513.750
21612100.000 4569710.000 -1020.000
21610600.000 4567730.000 -1730.000
21610950.000 4567917.500 -1740.000
21609900.000 4566680.000 -2050.000
21609675.000 4567355.000 -1967.500
21610400.000 4566980.000 -2077.500
21610900.000 4567280.000 -2105.000
21611250.000 4567805.000 -1945.000
21611400.000 4567580.000 -2132.500
21611575.000 4567842.500 -2052.500
21611900.000 4567880.000 -2160.000
21611650.000 4568292.500 -1760.000
21612075.000 4569402.500 -1207.500
21612025.000 4568787.500 -1582.500
21612175.000 4569582.500 -1091.250
21612200.000 4569540.000 -1115.000
21612000.000 4568480.000 -1770.000
21609400.000 4566337.500 -2221.250
21608900.000 4565995.000 -2392.500
21608400.000 4565652.500 -2563.750
21607900.000 4565310.000 -2735.000
21608600.000 4566685.000 -2407.500
21607825.000 4565430.000 -2770.000
21607750.000 4565550.000 -2805.000
21607675.000 4565670.000 -2840.000
21607600.000 4565790.000 -2875.000
21607575.000 4566032.500 -2748.750
21607550.000 4566275.000 -2622.500
21607925.000 4567055.000 -2311.250
21607525.000 4566517.500 -2496.250
21607500.000 4566760.000 -2370.000
21607525.000 4567142.500 -2290.000
21607900.000 4567975.000 -2022.500
21607550.000 4567525.000 -2210.000
21607575.000 4567907.500 -2130.000

POLYGONS 130 520
3 18 17 3
3 71 68 69
3 80 79 77
3 83 33 84
3 58 56 57
3 68 58 67
3 55 57 56
3 23 25 22
3 63 58 57
3 65 63 64
3 35 34 32
3 77 79 78
3 3 15 14
3 84 86 85
3 20 21 23
3 81 80 77
3 9 11 8
3 14 13 12
3 31 30 25
3 82 33 83
3 75 49 76
3 0 2 4
3 33 35 32
3 35 39 34
3 67 69 68
3 48 46 47
3 0 1 2
3 41 40 39
3 47 46 42
3 57 55 51
3 23 31 25
3 37 38 36
3 46 48 45
3 70 68 71
3 8 0 4
3 45 44 42
3 23 88 31
3 43 35 77
3 54 53 50
3 52 47 50
3 50 47 49
3 19 15 17
3 82 81 33
3 58 63 67
3 77 49 43
3 49 60 51
3 30 31 88
3 36 29 34
3 56 68 70
3 55 54 50
3 67 65 66
3 73 59 60
3 89 87 88
3 4 12 10
3 16 22 24
3 86 30 87
3 35 81 77
3 8 4 9
3 60 49 75
3 30 84 33
3 78 76 77
3 64 63 62
3 39 35 41
3 87 30 88
3 61 62 57
3 7 6 5
3 7 5 0
3 81 35 33
3 52 50 53
3 17 15 3
3 89 88 90
3 2 14 12
3 74 73 60
3 25 29 28
3 19 21 20
3 61 57 59
3 39 37 34
3 15 16 14
3 67 66 72
3 27 24 28
3 1 18 3
3 4 2 12
3 20 23 22
3 29 32 34
3 37 36 34
3 21 88 23
3 14 16 13
3 51 55 50
3 9 4 10
3 59 57 51
3 49 42 43
3 41 35 42
3 16 24 26
3 2 1 3
3 26 24 27
3 30 29 25
3 22 25 24
3 10 12 13
3 18 1 6
3 49 47 42
3 44 41 42
3 65 64 66
3 3 14 2
3 38 29 36
3 24 25 28
3 54 55 56
3 68 56 58
3 30 33 32
3 15 20 22
3 8 7 0
3 74 60 75
3 62 63 57
3 46 45 42
3 83 84 85
3 69 72 71
3 50 49 51
3 35 43 42
3 0 5 1
3 90 88 21
3 39 40 37
3 63 65 67
3 5 6 1
3 29 30 32
3 69 67 72
3 30 86 84
3 76 49 77
3 16 15 22
3 59 51 60
3 20 15 19
3 19 90 21

POINT_DATA 91
COLOR_SCALARS GocadColor 4
0.819608 0.698116 0.549615 1
0.819608 0.698116 0.549615 1
0.819608 0.698116 0.549615 1
0.819608 0.698116 0.549615 1
0.819608 0.698116 0.549615 1
0.819608 0.698116 0.549615 1
0.819608 0.698116 0.549615 1
0.819608 0.698116 0.549615 1
0.819608 0.698116 0.549615 1
0.819608 0.698116 0.549615 1
0.819608 0.698116 0.549615 1
0.819608 0.698116 0.549615 1
0.819608 0.698116 0.549615 1
0.819608 0.698116 0.549615 1
0.819608 0.698116 0.549615 1
0.819608 0.698116 0.549615 1
0.819608 0.698116 0.549615 1
0.819608 0.698116 0.549615 1
0.819608 0.698116 0.549615 1
0.819608 0.698116 0.549615 1
0.819608 0.698116 0.549615 1
0.819608 0.698116 0.549615 1
0.819608 0.698116 0.549615 1
0.819608 0.698116 0.549615 1
0.819608 0.698116 0.549615 1
0.819608 0.698116 0.549615 1
0.819608 0.698116 0.549615 1
0.819608 0.698116 0.549615 1
0.819608 0.698116 0.549615 1
0.819608 0.698116 0.549615 1
0.819608 0.698116 0.549615 1
0.819608 0.698116 0.549615 1
0.819608 0.698116 0.549615 1
0.819608 0.698116 0.549615 1
0.819608 0.698116 0.549615 1
0.819608 0.698116 0.549615 1
0.819608 0.698116 0.549615 1
0.819608 0.698116 0.549615 1
0.819608 0.698116 0.549615 1
0.819608 0.698116 0.549615 1
0.819608 0.698116 0.549615 1
0.819608 0.698116 0.549615 1
0.819608 0.698116 0.549615 1
0.819608 0.698116 0.549615 1
0.819608 0.698116 0.549615 1
0.819608 0.698116 0.549615 1
0.819608 0.698116 0.549615 1
0.819608 0.698116 0.549615 1
0.819608 0.698116 0.549615 1
0.819608 0.698116 0.549615 1
0.819608 0.698116 0.549615 1
0.819608 0.698116 0.549615 1
0.819608 0.698116 0.549615 1
0.819608 0.698116 0.549615 1
0.819608 0.698116 0.549615 1
0.819608 0.698116 0.549615 1
0.819608 0.698116 0.549615 1
0.819608 0.698116 0.549615 1
0.819608 0.698116 0.549615 1
0.819608 0.698116 0.549615 1
0.819608 0.698116 0.549615 1
0.819608 0.698116 0.549615 1
0.819608 0.698116 0.549615 1
0.819608 0.698116 0.549615 1
0.819608 0.698116 0.549615 1
0.819608 0.698116 0.549615 1
0.819608 0.698116 0.549615 1
0.819608 0.698116 0.549615 1
0.819608 0.698116 0.549615 1
0.819608 0.698116 0.549615 1
0.819608 0.698116 0.549615 1
0.819608 0.698116 0.549615 1
0.819608 0.698116 0.549615 1
0.819608 0.698116 0.549615 1
0.819608 0.698116 0.549615 1
0.819608 0.698116 0.549615 1
0.819608 0.698116 0.549615 1
0.819608 0.698116 0.549615 1
0.819608 0.698116 0.549615 1
0.819608 0.698116 0.549615 1
0.819608 0.698116 0.549615 1
0.819608 0.698116 0.549615 1
0.819608 0.698116 0.549615 1
0.819608 0.698116 0.549615 1
0.819608 0.698116 0.549615 1
0.819608 0.698116 0.549615 1
0.819608 0.698116 0.549615 1
0.819608 0.698116 0.549615 1
0.819608 0.698116 0.549615 1
0.819608 0.698116 0.549615 1
0.819608 0.698116 0.549615 1

