# vtk DataFile Version 3.0
Gocad TSurf to VTK
ASCII
DATASET POLYDATA
POINTS 347 float
21540525.000 4544800.000 -3870.000
21540400.000 4544580.000 -4100.000
21541425.000 4544920.000 -2951.250
21541275.000 4544495.000 -2927.500
21540900.000 4545460.000 -3180.000
21540150.000 4544910.000 -4002.500
21539900.000 4545240.000 -3905.000
21539300.000 4544602.500 -4932.500
21539700.000 4545027.500 -4247.500
21539260.578 4544560.621 -5000.000
21539238.641 4544596.363 -5000.000
21539404.250 4544434.469 -5000.000
21540125.000 4544337.500 -4111.250
21539342.219 4544377.594 -5000.000
21540325.000 4543965.000 -3338.750
21539575.000 4543425.000 -3775.000
21541250.000 4544095.000 -2182.500
21541000.000 4543860.000 -2120.000
21541300.000 4544300.000 -2497.500
21541500.000 4544330.000 -2245.000
21541450.000 4544520.000 -2686.250
21542100.000 4544810.000 -2315.000
21541725.000 4544965.000 -2572.500
21541700.000 4544360.000 -1945.000
21542175.000 4544625.000 -2046.250
21541550.000 4544140.000 -1732.500
21541900.000 4543730.000 -1490.000
21541400.000 4543920.000 -1520.000
21541250.000 4543400.000 -2175.000
21541075.000 4543147.500 -2183.750
21541700.000 4543192.500 -2052.500
21541375.000 4543170.000 -2202.500
21541800.000 4543450.000 -1707.500
21542000.000 4543215.000 -1801.250
21542000.000 4543480.000 -1625.000
21541800.000 4542950.000 -2230.000
21542200.000 4542750.000 -2038.750
21541500.000 4542940.000 -2230.000
21541675.000 4542720.000 -2290.000
21541500.000 4542707.500 -2446.250
21541900.000 4542727.500 -2290.000
21541850.000 4542500.000 -2350.000
21542200.000 4542290.000 -2326.250
21542800.000 4542565.000 -1540.000
21542000.000 4542505.000 -2350.000
21542025.000 4542280.000 -2410.000
21542124.438 4542155.000 -2444.091
21541835.609 4542155.000 -2682.774
21542200.000 4542155.000 -2410.625
21542312.875 4542155.000 -2295.050
21543392.766 4542155.000 -1189.277
21543398.875 4542155.000 -1182.331
21543350.000 4542372.500 -1066.250
21543413.719 4542155.000 -1170.000
21543250.000 4542817.500 -828.750
21543200.000 4543040.000 -710.000
21543450.000 4542832.500 -651.250
21544175.000 4542432.500 -337.500
21543600.000 4543355.000 -271.250
21543825.000 4542855.000 -253.750
21543500.000 4543640.000 -362.500
21543225.000 4543332.500 -668.750
21543750.000 4543680.000 -82.500
21543875.000 4543992.500 18.750
21544025.000 4543397.500 26.250
21544125.000 4542877.500 -96.250
21543950.000 4543695.000 22.500
21544450.000 4543770.000 167.500
21544625.000 4544105.000 236.250
21543800.000 4544290.000 15.000
21544950.000 4543472.500 286.250
21544800.000 4544440.000 305.000
21544950.000 4543472.500 286.250
21544800.000 4544627.500 305.000
21544550.000 4544965.000 232.500
21543850.000 4544675.000 -772.500
21544800.000 4544815.000 305.000
21544800.000 4545002.500 305.000
21544800.000 4545190.000 305.000
21543900.000 4545060.000 -1560.000
21543750.000 4544847.500 -1306.250
21544100.000 4545382.500 -1267.500
21544750.000 4545770.000 -42.500
21543900.000 4545337.500 -1456.250
21543750.000 4545305.000 -1536.250
21543900.000 4545615.000 -1352.500
21543900.000 4545892.500 -1248.750
21543600.000 4545550.000 -1512.500
21543450.000 4545795.000 -1488.750
21543400.000 4545525.000 -1730.000
21543125.000 4545730.000 -1668.750
21543375.000 4545250.000 -1886.250
21543250.000 4545490.000 -1777.500
21543500.000 4545010.000 -1995.000
21543000.000 4545192.500 -2076.250
21543350.000 4544795.000 -1765.000
21543400.000 4544605.000 -1317.500
21543050.000 4544757.500 -1922.500
21543100.000 4544960.000 -2205.000
21543000.000 4544555.000 -1640.000
21542700.000 4544707.500 -1952.500
21543200.000 4544580.000 -1535.000
21543050.000 4544365.000 -1305.000
21543600.000 4544635.000 -1052.500
21543450.000 4544422.500 -798.750
21543400.000 4543925.000 -453.750
21542975.000 4543872.500 -983.750
21543250.000 4543625.000 -627.500
21543050.000 4543595.000 -892.500
21542600.000 4543812.500 -1141.250
21543125.000 4543317.500 -801.250
21542400.000 4544070.000 -1285.000
21542325.000 4544255.000 -1538.750
21542500.000 4544282.500 -1507.500
21542400.000 4544465.000 -1730.000
21542250.000 4544440.000 -1792.500
21542600.000 4544495.000 -1730.000
21542400.000 4544662.500 -1952.500
21542400.000 4544860.000 -2175.000
21542800.000 4544920.000 -2175.000
21542775.000 4545162.500 -2053.750
21543050.000 4545465.000 -1882.500
21542750.000 4545405.000 -1932.500
21542725.000 4545647.500 -1811.250
21542600.000 4545370.000 -2085.000
21542400.000 4545100.000 -2130.000
21542400.000 4545580.000 -2040.000
21542400.000 4545340.000 -2085.000
21542250.000 4545315.000 -2162.500
21542175.000 4545062.500 -2223.750
21542300.000 4545567.500 -2082.500
21541175.000 4545295.000 -2977.500
21542400.000 4545820.000 -1995.000
21542425.000 4545927.500 -1703.750
21542700.000 4545890.000 -1690.000
21541600.000 4546040.000 -1745.000
21542700.000 4546470.000 -990.000
21540350.000 4545435.000 -3027.500
21539800.000 4545410.000 -2875.000
21539875.000 4545282.500 -3647.500
21539850.000 4545325.000 -3390.000
21539825.000 4545367.500 -3132.500
21540850.000 4546120.000 -2330.000
21541350.000 4546315.000 -1925.000
21539875.000 4545607.500 -2885.000
21539950.000 4545805.000 -2895.000
21540475.000 4546160.000 -2622.500
21540025.000 4546002.500 -2905.000
21540100.000 4546200.000 -2915.000
21541100.000 4546590.000 -2105.000
21540350.000 4546465.000 -2772.500
21542350.000 4546902.500 -1306.250
21541850.000 4546327.500 -1598.750
21542600.000 4547190.000 -1160.000
21541850.000 4547385.000 -1808.750
21542650.000 4546830.000 -1075.000
21542925.000 4547115.000 -963.750
21543250.000 4547040.000 -767.500
21543700.000 4547620.000 -670.000
21543400.000 4547875.000 -900.000
21543750.000 4547437.500 -596.250
21544100.000 4547365.000 -397.500
21543900.000 4546890.000 -375.000
21544700.000 4548000.000 -305.000
21544650.000 4547777.500 -260.000
21544450.000 4548295.000 -432.500
21544075.000 4548347.500 -587.500
21544700.000 4548200.000 -312.500
21545200.000 4548600.000 -167.500
21544700.000 4548400.000 -320.000
21544700.000 4548600.000 -327.500
21544700.000 4548800.000 -335.000
21545700.000 4549220.000 -140.000
21545700.000 4548400.000 0.000
21546450.000 4549105.000 62.500
21547200.000 4548990.000 265.000
21547275.813 4549877.375 341.818
21547264.813 4549665.496 325.464
21547276.469 4549889.996 342.792
21547256.406 4549503.285 312.944
21547250.000 4549445.000 307.500
21547256.406 4549503.285 312.944
21547225.000 4549217.500 286.250
21547050.000 4548710.000 275.000
21546150.000 4548135.000 152.500
21547050.000 4548710.000 275.000
21546900.000 4548430.000 285.000
21546750.000 4548150.000 295.000
21546600.000 4547870.000 305.000
21545250.000 4547612.500 82.500
21545550.000 4548137.500 27.500
21545000.000 4547512.500 6.250
21544900.000 4547675.000 -97.500
21546275.000 4547530.000 320.000
21545200.000 4546930.000 237.500
21544700.000 4546960.000 -2.500
21545950.000 4547190.000 335.000
21545625.000 4546850.000 350.000
21545446.078 4546662.813 358.258
21545296.813 4546523.379 360.939
21545292.797 4546515.406 360.584
21544700.000 4546350.000 -390.000
21545295.703 4546508.855 359.591
21544650.000 4546540.000 -323.750
21544550.000 4546920.000 -191.250
21544300.000 4546620.000 -382.500
21543900.000 4546350.000 -952.500
21543900.000 4546710.000 -567.500
21543600.000 4546245.000 -1106.250
21544500.000 4546027.500 -682.500
21544725.000 4546060.000 -216.250
21545167.438 4546177.984 340.493
21545131.281 4546084.680 335.107
21545169.047 4546182.129 340.732
21545047.547 4545851.590 330.827
21545046.641 4545849.105 330.781
21544991.234 4545694.867 327.948
21544925.000 4545520.000 320.000
21543300.000 4546040.000 -1465.000
21543000.000 4546395.000 -1028.750
21543000.000 4546255.000 -1227.500
21544100.000 4546755.000 -378.750
21544300.000 4547237.500 -261.250
21543575.000 4546965.000 -571.250
21542850.000 4546362.500 -1108.750
21542850.000 4546220.000 -1275.000
21542925.000 4546095.000 -1417.500
21542700.000 4546035.000 -1515.000
21543000.000 4545970.000 -1560.000
21544200.000 4548590.000 -560.000
21543200.000 4548140.000 -1115.000
21543250.000 4548002.500 -1015.000
21543100.000 4548130.000 -1130.000
21542975.000 4547895.000 -1148.750
21543100.000 4548130.000 -1145.000
21541600.000 4547450.000 -2025.000
21541475.000 4547235.000 -2045.000
21541225.000 4546805.000 -2085.000
21541100.000 4547260.000 -2345.000
21541100.000 4547092.500 -2285.000
21540850.000 4546995.000 -2487.500
21540600.000 4546730.000 -2630.000
21544958.469 4543417.887 285.192
21544958.469 4543417.887 285.192
21544958.891 4543406.008 284.571
21544966.359 4543367.000 284.205
21545000.000 4543150.000 280.000
21544966.359 4543367.000 284.205
21545000.000 4542482.500 -12.500
21544400.000 4542665.000 -102.500
21545067.875 4543130.449 279.185
21545583.391 4542937.547 253.527
21545653.422 4542911.340 250.041
21545846.984 4542840.898 241.278
21545973.875 4542794.723 235.534
21546145.266 4542764.236 241.749
21546182.359 4542757.637 243.095
21546653.078 4542673.914 260.163
21546875.000 4542610.000 257.500
21545000.000 4542260.000 -110.000
21544775.000 4542460.000 -106.250
21547500.000 4542430.000 250.000
21546208.219 4542155.000 -7.158
21545091.500 4542155.000 -139.100
21547187.938 4542155.000 108.599
21547441.078 4542155.000 52.589
21547559.359 4542155.000 32.374
21548302.922 4542155.000 275.091
21548302.922 4542155.000 275.091
21545076.203 4542155.000 -140.907
21545000.000 4542155.000 -137.097
21544550.000 4542447.500 -168.750
21544814.578 4542155.000 -181.244
21544200.000 4542210.000 -460.000
21543466.672 4542155.000 -1124.583
21544467.984 4542155.000 -323.884
21544236.969 4542155.000 -458.613
21544181.672 4542155.000 -463.896
21544147.625 4542155.000 -494.702
21543601.344 4542155.000 -1000.000
21541500.000 4542242.500 -2878.750
21541473.078 4542155.000 -2844.423
21541050.000 4542677.500 -2416.250
21540950.000 4542440.000 -2880.000
21540675.000 4542655.000 -2772.500
21541116.422 4542155.000 -2799.909
21540842.641 4542155.000 -2895.616
21540759.016 4542155.000 -3147.444
21540746.422 4542155.000 -3185.357
21540436.938 4542155.000 -3225.625
21540250.000 4542390.000 -3020.000
21540201.891 4542155.000 -3202.172
21540350.000 4542632.500 -2842.500
21540050.000 4542380.000 -3007.500
21540550.000 4543117.500 -2528.750
21540350.000 4543315.000 -2875.000
21540850.000 4543612.500 -2256.250
21539125.000 4542557.500 -4372.500
21538700.000 4543120.000 -4757.500
21538480.453 4542635.000 -5000.000
21539200.000 4544000.000 -4710.000
21538475.000 4543682.500 -4935.000
21539148.672 4544200.176 -5000.000
21539003.391 4544101.582 -5000.000
21538774.672 4543934.266 -5000.000
21538550.828 4543783.250 -5000.000
21538446.984 4543724.527 -5000.000
21538335.719 4543661.605 -5000.000
21538277.578 4543429.773 -5000.000
21537911.375 4543309.270 -5000.000
21538368.156 4543086.816 -5000.000
21538487.250 4542516.502 -5000.000
21538429.516 4542469.557 -5000.000
21538450.000 4542275.000 -4722.500
21538800.000 4542295.000 -4372.500
21538112.406 4542206.682 -5000.000
21538050.063 4542155.000 -5000.000
21538097.063 4542155.000 -4948.887
21538201.344 4542155.000 -4835.473
21538462.625 4542155.000 -4551.342
21538555.500 4542155.000 -4455.467
21538715.156 4542155.000 -4284.116
21539150.000 4542325.000 -4045.000
21538777.250 4542155.000 -4219.285
21539587.391 4542155.000 -3176.776
21539513.938 4542155.000 -3269.751
21539889.281 4542155.000 -3164.771
21540141.672 4542155.000 -3195.417
21540175.000 4542157.500 -3197.500
21540174.250 4542155.000 -3199.293
21540180.125 4542155.000 -3200.000
21540175.531 4542155.000 -3195.873
21539430.000 4542155.000 -3376.000
21539168.281 4542155.000 -3805.538
21538984.984 4542155.000 -4000.000
21538843.688 4542155.000 -4149.910
21540950.000 4543380.000 -2155.000
21540925.000 4543140.000 -2172.500
21541100.000 4542910.000 -2205.000
21539450.000 4544810.000 -4645.000
21539675.000 4545025.000 -4275.000
21539234.125 4544603.715 -5000.000
21544966.359 4543367.000 284.205
21544966.359 4543367.000 284.205
21544958.469 4543417.887 285.192
21544958.469 4543417.887 285.192
21544958.891 4543406.008 284.571

POLYGONS 549 2196
3 42 44 45
3 73 74 69
3 313 320 321
3 34 33 36
3 3 20 2
3 91 121 94
3 125 127 128
3 78 79 75
3 180 175 182
3 178 172 176
3 16 25 19
3 228 90 88
3 260 249 271
3 223 136 162
3 37 35 30
3 189 190 192
3 43 42 48
3 105 104 106
3 47 280 281
3 52 51 53
3 223 157 155
3 9 11 1
3 299 297 298
3 19 20 18
3 82 209 81
3 283 284 290
3 293 322 324
3 19 18 16
3 180 174 175
3 258 248 259
3 15 297 292
3 282 337 294
3 64 58 65
3 151 153 149
3 138 141 137
3 240 241 239
3 60 62 63
3 205 204 221
3 136 223 155
3 65 249 248
3 337 336 296
3 22 131 2
3 286 283 287
3 24 118 21
3 93 79 91
3 129 22 21
3 283 289 288
3 113 111 102
3 132 134 133
3 234 233 231
3 116 117 114
3 20 3 18
3 280 41 39
3 326 293 324
3 191 164 222
3 106 107 105
3 263 259 269
3 146 148 147
3 227 225 224
3 160 223 162
3 167 169 165
3 127 124 126
3 156 158 153
3 149 153 154
3 110 108 109
3 25 27 26
3 222 161 162
3 121 92 90
3 322 335 334
3 333 322 334
3 293 290 292
3 44 41 45
3 186 183 184
3 123 134 132
3 204 195 222
3 295 294 296
3 70 64 242
3 273 57 274
3 224 225 220
3 104 105 69
3 282 338 337
3 237 149 154
3 277 273 278
3 116 113 99
3 163 173 168
3 58 62 60
3 138 135 142
3 13 302 12
3 90 89 88
3 201 210 211
3 197 196 194
3 43 55 36
3 93 95 80
3 40 38 41
3 246 65 248
3 283 288 287
3 38 39 41
3 112 115 23
3 66 62 64
3 121 91 92
3 79 80 75
3 110 61 107
3 142 145 144
3 64 245 244
3 17 296 336
3 196 193 194
3 304 305 300
3 146 147 145
3 111 109 106
3 149 146 143
3 141 140 137
3 153 151 155
3 68 69 63
3 144 138 142
3 184 190 189
3 146 142 143
3 56 52 57
3 88 87 85
3 201 213 202
3 3 1 14
3 201 206 86
3 54 55 43
3 267 261 266
3 164 163 161
3 89 87 88
3 87 84 83
3 153 233 154
3 226 227 228
3 0 1 2
3 19 23 21
3 4 132 133
3 198 197 194
3 123 121 90
3 89 84 87
3 11 13 12
3 52 43 51
3 96 103 80
3 312 315 313
3 163 164 192
3 208 218 86
3 229 166 165
3 313 314 297
3 256 255 248
3 322 333 332
3 290 291 289
3 93 91 94
3 198 194 199
3 256 248 257
3 80 103 75
3 167 165 163
3 14 12 15
3 115 117 24
3 252 251 248
3 62 66 63
3 130 128 126
3 280 39 282
3 284 292 290
3 189 192 191
3 246 247 245
3 163 165 158
3 328 329 331
3 6 8 5
3 161 222 164
3 137 4 135
3 42 45 46
3 36 42 43
3 328 293 327
3 40 36 35
3 130 22 129
3 166 229 230
3 52 54 43
3 250 246 248
3 124 125 120
3 118 119 120
3 173 175 174
3 264 261 262
3 161 160 162
3 16 27 25
3 15 295 14
3 310 299 298
3 319 313 318
3 90 92 89
3 278 273 279
3 40 35 38
3 166 159 158
3 23 25 26
3 59 56 57
3 220 226 218
3 40 42 36
3 283 290 289
3 17 27 16
3 208 206 207
3 218 228 88
3 19 25 23
3 200 201 202
3 213 201 211
3 302 303 300
3 183 175 173
3 17 29 28
3 179 180 181
3 112 114 115
3 102 111 106
3 312 313 297
3 234 235 154
3 120 119 94
3 219 162 136
3 261 264 265
3 143 152 151
3 29 338 31
3 160 158 156
3 315 316 313
3 283 286 285
3 254 253 248
3 297 293 292
3 292 284 294
3 172 174 176
3 300 301 298
3 340 339 7
3 18 3 16
3 191 192 164
3 253 252 248
3 215 82 216
3 188 189 191
3 308 298 301
3 68 67 70
3 113 114 112
3 118 129 21
3 113 112 111
3 133 227 224
3 30 33 32
3 146 149 148
3 190 163 192
3 219 136 224
3 236 239 237
3 166 230 159
3 152 136 155
3 163 158 161
3 207 219 208
3 137 140 139
3 169 170 165
3 81 78 82
3 73 76 74
3 209 86 81
3 259 260 271
3 114 117 115
3 45 280 47
3 132 4 131
3 305 306 301
3 57 52 53
3 134 123 90
3 99 113 102
3 65 246 64
3 268 261 267
3 1 3 2
3 210 214 212
3 15 298 297
3 156 155 157
3 311 312 297
3 43 48 49
3 307 308 301
3 206 201 205
3 31 37 30
3 195 191 222
3 220 225 226
3 295 296 14
3 95 96 80
3 195 201 200
3 55 60 61
3 170 171 165
3 261 265 266
3 113 116 114
3 43 49 50
3 230 232 231
3 322 323 335
3 258 259 261
3 64 244 242
3 209 82 210
3 128 130 129
3 236 235 238
3 261 259 262
3 204 205 203
3 117 118 24
3 165 166 158
3 251 250 248
3 71 73 69
3 34 32 33
3 70 72 71
3 104 103 102
3 201 203 205
3 82 217 216
3 86 88 85
3 176 174 177
3 79 84 91
3 105 107 60
3 276 273 277
3 133 134 227
3 32 26 27
3 259 263 262
3 337 29 336
3 6 4 137
3 100 119 118
3 20 19 21
3 271 272 270
3 67 63 66
3 195 204 203
3 77 74 76
3 325 322 332
3 152 135 136
3 241 150 239
3 338 29 337
3 299 311 297
3 38 37 39
3 65 59 57
3 51 43 50
3 296 294 337
3 64 62 58
3 81 83 79
3 280 282 283
3 221 204 222
3 314 313 321
3 221 162 207
3 28 29 31
3 10 339 341
3 71 68 70
3 115 24 23
3 157 223 160
3 48 42 46
3 338 37 31
3 271 275 272
3 193 188 191
3 233 153 159
3 290 293 328
3 1 0 5
3 74 78 75
3 61 60 107
3 328 327 329
3 5 8 7
3 97 100 99
3 68 71 69
3 201 209 210
3 154 236 237
3 29 17 336
3 224 136 133
3 129 125 128
3 210 212 211
3 8 340 7
3 162 221 222
3 318 313 317
3 30 35 33
3 108 107 106
3 156 153 155
3 291 328 330
3 75 103 104
3 105 60 63
3 327 293 326
3 33 35 36
3 275 273 276
3 101 99 102
3 39 37 282
3 190 173 163
3 219 220 208
3 185 175 183
3 191 195 194
3 122 123 126
3 69 105 63
3 30 32 27
3 322 314 321
3 174 180 179
3 58 59 65
3 271 57 273
3 235 236 154
3 214 210 215
3 231 233 159
3 56 55 54
3 207 206 205
3 271 273 275
3 86 85 81
3 228 134 90
3 143 142 135
3 64 246 245
3 10 7 339
3 148 149 150
3 111 112 26
3 103 96 102
3 330 328 331
3 74 75 69
3 116 100 117
3 207 162 219
3 151 149 143
3 85 83 81
3 249 260 248
3 55 56 58
3 172 168 173
3 23 24 21
3 189 188 184
3 84 89 91
3 100 118 117
3 56 59 58
3 134 228 227
3 306 307 301
3 130 131 22
3 255 254 248
3 38 35 37
3 146 145 142
3 282 294 284
3 4 6 0
3 309 310 298
3 26 34 111
3 283 282 284
3 79 93 80
3 169 168 170
3 101 95 99
3 2 131 4
3 132 130 126
3 290 328 291
3 324 322 325
3 120 94 121
3 171 229 165
3 169 167 168
3 302 300 12
3 296 17 14
3 139 6 137
3 243 72 242
3 81 79 78
3 218 88 86
3 27 17 28
3 34 36 109
3 7 1 5
3 234 154 233
3 65 57 249
3 108 106 109
3 157 160 156
3 172 171 168
3 16 3 14
3 152 143 135
3 123 122 121
3 6 5 0
3 21 22 2
3 320 313 319
3 119 100 97
3 132 131 130
3 173 190 184
3 238 240 239
3 98 93 94
3 108 110 107
3 112 23 26
3 78 217 82
3 316 317 313
3 168 171 170
3 152 155 151
3 122 120 121
3 70 67 64
3 248 258 257
3 269 259 270
3 28 31 30
3 97 93 98
3 281 283 285
3 118 125 129
3 123 132 126
3 149 237 239
3 67 68 63
3 83 84 79
3 37 338 282
3 89 92 91
3 167 163 168
3 203 201 195
3 30 27 28
3 26 32 34
3 36 55 109
3 199 195 200
3 210 82 215
3 75 104 69
3 67 66 64
3 57 53 274
3 209 201 86
3 206 208 86
3 184 187 186
3 260 259 248
3 297 322 293
3 127 126 128
3 186 185 183
3 295 292 294
3 238 239 236
3 122 124 120
3 135 4 133
3 194 195 199
3 158 160 161
3 136 135 133
3 226 228 218
3 85 87 83
3 99 95 97
3 273 274 279
3 45 41 280
3 44 40 41
3 10 9 7
3 100 116 99
3 2 4 0
3 280 283 281
3 177 174 179
3 221 207 205
3 77 78 74
3 119 98 94
3 15 300 298
3 15 292 295
3 232 234 231
3 219 224 220
3 308 309 298
3 259 271 270
3 159 153 158
3 183 173 184
3 303 304 300
3 125 118 120
3 95 93 97
3 97 98 119
3 56 54 52
3 249 57 271
3 1 12 14
3 45 47 46
3 124 122 126
3 231 159 230
3 96 101 102
3 305 301 300
3 44 42 40
3 96 95 101
3 127 125 124
3 1 11 12
3 297 314 322
3 193 191 194
3 20 21 2
3 138 137 135
3 227 226 225
3 58 60 55
3 104 102 106
3 323 322 321
3 9 1 7
3 55 110 109
3 6 340 8
3 12 300 15
3 34 109 111
3 17 16 14
3 174 172 173
3 61 110 55
3 150 149 239
3 188 187 184
3 220 218 208
3 72 70 242
3 345 342 344
3 342 343 344
3 345 346 342

POINT_DATA 347
COLOR_SCALARS GocadColor 4
0.588235 0.321569 0.176471 1
0.588235 0.321569 0.176471 1
0.588235 0.321569 0.176471 1
0.588235 0.321569 0.176471 1
0.588235 0.321569 0.176471 1
0.588235 0.321569 0.176471 1
0.588235 0.321569 0.176471 1
0.588235 0.321569 0.176471 1
0.588235 0.321569 0.176471 1
0.588235 0.321569 0.176471 1
0.588235 0.321569 0.176471 1
0.588235 0.321569 0.176471 1
0.588235 0.321569 0.176471 1
0.588235 0.321569 0.176471 1
0.588235 0.321569 0.176471 1
0.588235 0.321569 0.176471 1
0.588235 0.321569 0.176471 1
0.588235 0.321569 0.176471 1
0.588235 0.321569 0.176471 1
0.588235 0.321569 0.176471 1
0.588235 0.321569 0.176471 1
0.588235 0.321569 0.176471 1
0.588235 0.321569 0.176471 1
0.588235 0.321569 0.176471 1
0.588235 0.321569 0.176471 1
0.588235 0.321569 0.176471 1
0.588235 0.321569 0.176471 1
0.588235 0.321569 0.176471 1
0.588235 0.321569 0.176471 1
0.588235 0.321569 0.176471 1
0.588235 0.321569 0.176471 1
0.588235 0.321569 0.176471 1
0.588235 0.321569 0.176471 1
0.588235 0.321569 0.176471 1
0.588235 0.321569 0.176471 1
0.588235 0.321569 0.176471 1
0.588235 0.321569 0.176471 1
0.588235 0.321569 0.176471 1
0.588235 0.321569 0.176471 1
0.588235 0.321569 0.176471 1
0.588235 0.321569 0.176471 1
0.588235 0.321569 0.176471 1
0.588235 0.321569 0.176471 1
0.588235 0.321569 0.176471 1
0.588235 0.321569 0.176471 1
0.588235 0.321569 0.176471 1
0.588235 0.321569 0.176471 1
0.588235 0.321569 0.176471 1
0.588235 0.321569 0.176471 1
0.588235 0.321569 0.176471 1
0.588235 0.321569 0.176471 1
0.588235 0.321569 0.176471 1
0.588235 0.321569 0.176471 1
0.588235 0.321569 0.176471 1
0.588235 0.321569 0.176471 1
0.588235 0.321569 0.176471 1
0.588235 0.321569 0.176471 1
0.588235 0.321569 0.176471 1
0.588235 0.321569 0.176471 1
0.588235 0.321569 0.176471 1
0.588235 0.321569 0.176471 1
0.588235 0.321569 0.176471 1
0.588235 0.321569 0.176471 1
0.588235 0.321569 0.176471 1
0.588235 0.321569 0.176471 1
0.588235 0.321569 0.176471 1
0.588235 0.321569 0.176471 1
0.588235 0.321569 0.176471 1
0.588235 0.321569 0.176471 1
0.588235 0.321569 0.176471 1
0.588235 0.321569 0.176471 1
0.588235 0.321569 0.176471 1
0.588235 0.321569 0.176471 1
0.588235 0.321569 0.176471 1
0.588235 0.321569 0.176471 1
0.588235 0.321569 0.176471 1
0.588235 0.321569 0.176471 1
0.588235 0.321569 0.176471 1
0.588235 0.321569 0.176471 1
0.588235 0.321569 0.176471 1
0.588235 0.321569 0.176471 1
0.588235 0.321569 0.176471 1
0.588235 0.321569 0.176471 1
0.588235 0.321569 0.176471 1
0.588235 0.321569 0.176471 1
0.588235 0.321569 0.176471 1
0.588235 0.321569 0.176471 1
0.588235 0.321569 0.176471 1
0.588235 0.321569 0.176471 1
0.588235 0.321569 0.176471 1
0.588235 0.321569 0.176471 1
0.588235 0.321569 0.176471 1
0.588235 0.321569 0.176471 1
0.588235 0.321569 0.176471 1
0.588235 0.321569 0.176471 1
0.588235 0.321569 0.176471 1
0.588235 0.321569 0.176471 1
0.588235 0.321569 0.176471 1
0.588235 0.321569 0.176471 1
0.588235 0.321569 0.176471 1
0.588235 0.321569 0.176471 1
0.588235 0.321569 0.176471 1
0.588235 0.321569 0.176471 1
0.588235 0.321569 0.176471 1
0.588235 0.321569 0.176471 1
0.588235 0.321569 0.176471 1
0.588235 0.321569 0.176471 1
0.588235 0.321569 0.176471 1
0.588235 0.321569 0.176471 1
0.588235 0.321569 0.176471 1
0.588235 0.321569 0.176471 1
0.588235 0.321569 0.176471 1
0.588235 0.321569 0.176471 1
0.588235 0.321569 0.176471 1
0.588235 0.321569 0.176471 1
0.588235 0.321569 0.176471 1
0.588235 0.321569 0.176471 1
0.588235 0.321569 0.176471 1
0.588235 0.321569 0.176471 1
0.588235 0.321569 0.176471 1
0.588235 0.321569 0.176471 1
0.588235 0.321569 0.176471 1
0.588235 0.321569 0.176471 1
0.588235 0.321569 0.176471 1
0.588235 0.321569 0.176471 1
0.588235 0.321569 0.176471 1
0.588235 0.321569 0.176471 1
0.588235 0.321569 0.176471 1
0.588235 0.321569 0.176471 1
0.588235 0.321569 0.176471 1
0.588235 0.321569 0.176471 1
0.588235 0.321569 0.176471 1
0.588235 0.321569 0.176471 1
0.588235 0.321569 0.176471 1
0.588235 0.321569 0.176471 1
0.588235 0.321569 0.176471 1
0.588235 0.321569 0.176471 1
0.588235 0.321569 0.176471 1
0.588235 0.321569 0.176471 1
0.588235 0.321569 0.176471 1
0.588235 0.321569 0.176471 1
0.588235 0.321569 0.176471 1
0.588235 0.321569 0.176471 1
0.588235 0.321569 0.176471 1
0.588235 0.321569 0.176471 1
0.588235 0.321569 0.176471 1
0.588235 0.321569 0.176471 1
0.588235 0.321569 0.176471 1
0.588235 0.321569 0.176471 1
0.588235 0.321569 0.176471 1
0.588235 0.321569 0.176471 1
0.588235 0.321569 0.176471 1
0.588235 0.321569 0.176471 1
0.588235 0.321569 0.176471 1
0.588235 0.321569 0.176471 1
0.588235 0.321569 0.176471 1
0.588235 0.321569 0.176471 1
0.588235 0.321569 0.176471 1
0.588235 0.321569 0.176471 1
0.588235 0.321569 0.176471 1
0.588235 0.321569 0.176471 1
0.588235 0.321569 0.176471 1
0.588235 0.321569 0.176471 1
0.588235 0.321569 0.176471 1
0.588235 0.321569 0.176471 1
0.588235 0.321569 0.176471 1
0.588235 0.321569 0.176471 1
0.588235 0.321569 0.176471 1
0.588235 0.321569 0.176471 1
0.588235 0.321569 0.176471 1
0.588235 0.321569 0.176471 1
0.588235 0.321569 0.176471 1
0.588235 0.321569 0.176471 1
0.588235 0.321569 0.176471 1
0.588235 0.321569 0.176471 1
0.588235 0.321569 0.176471 1
0.588235 0.321569 0.176471 1
0.588235 0.321569 0.176471 1
0.588235 0.321569 0.176471 1
0.588235 0.321569 0.176471 1
0.588235 0.321569 0.176471 1
0.588235 0.321569 0.176471 1
0.588235 0.321569 0.176471 1
0.588235 0.321569 0.176471 1
0.588235 0.321569 0.176471 1
0.588235 0.321569 0.176471 1
0.588235 0.321569 0.176471 1
0.588235 0.321569 0.176471 1
0.588235 0.321569 0.176471 1
0.588235 0.321569 0.176471 1
0.588235 0.321569 0.176471 1
0.588235 0.321569 0.176471 1
0.588235 0.321569 0.176471 1
0.588235 0.321569 0.176471 1
0.588235 0.321569 0.176471 1
0.588235 0.321569 0.176471 1
0.588235 0.321569 0.176471 1
0.588235 0.321569 0.176471 1
0.588235 0.321569 0.176471 1
0.588235 0.321569 0.176471 1
0.588235 0.321569 0.176471 1
0.588235 0.321569 0.176471 1
0.588235 0.321569 0.176471 1
0.588235 0.321569 0.176471 1
0.588235 0.321569 0.176471 1
0.588235 0.321569 0.176471 1
0.588235 0.321569 0.176471 1
0.588235 0.321569 0.176471 1
0.588235 0.321569 0.176471 1
0.588235 0.321569 0.176471 1
0.588235 0.321569 0.176471 1
0.588235 0.321569 0.176471 1
0.588235 0.321569 0.176471 1
0.588235 0.321569 0.176471 1
0.588235 0.321569 0.176471 1
0.588235 0.321569 0.176471 1
0.588235 0.321569 0.176471 1
0.588235 0.321569 0.176471 1
0.588235 0.321569 0.176471 1
0.588235 0.321569 0.176471 1
0.588235 0.321569 0.176471 1
0.588235 0.321569 0.176471 1
0.588235 0.321569 0.176471 1
0.588235 0.321569 0.176471 1
0.588235 0.321569 0.176471 1
0.588235 0.321569 0.176471 1
0.588235 0.321569 0.176471 1
0.588235 0.321569 0.176471 1
0.588235 0.321569 0.176471 1
0.588235 0.321569 0.176471 1
0.588235 0.321569 0.176471 1
0.588235 0.321569 0.176471 1
0.588235 0.321569 0.176471 1
0.588235 0.321569 0.176471 1
0.588235 0.321569 0.176471 1
0.588235 0.321569 0.176471 1
0.588235 0.321569 0.176471 1
0.588235 0.321569 0.176471 1
0.588235 0.321569 0.176471 1
0.588235 0.321569 0.176471 1
0.588235 0.321569 0.176471 1
0.588235 0.321569 0.176471 1
0.588235 0.321569 0.176471 1
0.588235 0.321569 0.176471 1
0.588235 0.321569 0.176471 1
0.588235 0.321569 0.176471 1
0.588235 0.321569 0.176471 1
0.588235 0.321569 0.176471 1
0.588235 0.321569 0.176471 1
0.588235 0.321569 0.176471 1
0.588235 0.321569 0.176471 1
0.588235 0.321569 0.176471 1
0.588235 0.321569 0.176471 1
0.588235 0.321569 0.176471 1
0.588235 0.321569 0.176471 1
0.588235 0.321569 0.176471 1
0.588235 0.321569 0.176471 1
0.588235 0.321569 0.176471 1
0.588235 0.321569 0.176471 1
0.588235 0.321569 0.176471 1
0.588235 0.321569 0.176471 1
0.588235 0.321569 0.176471 1
0.588235 0.321569 0.176471 1
0.588235 0.321569 0.176471 1
0.588235 0.321569 0.176471 1
0.588235 0.321569 0.176471 1
0.588235 0.321569 0.176471 1
0.588235 0.321569 0.176471 1
0.588235 0.321569 0.176471 1
0.588235 0.321569 0.176471 1
0.588235 0.321569 0.176471 1
0.588235 0.321569 0.176471 1
0.588235 0.321569 0.176471 1
0.588235 0.321569 0.176471 1
0.588235 0.321569 0.176471 1
0.588235 0.321569 0.176471 1
0.588235 0.321569 0.176471 1
0.588235 0.321569 0.176471 1
0.588235 0.321569 0.176471 1
0.588235 0.321569 0.176471 1
0.588235 0.321569 0.176471 1
0.588235 0.321569 0.176471 1
0.588235 0.321569 0.176471 1
0.588235 0.321569 0.176471 1
0.588235 0.321569 0.176471 1
0.588235 0.321569 0.176471 1
0.588235 0.321569 0.176471 1
0.588235 0.321569 0.176471 1
0.588235 0.321569 0.176471 1
0.588235 0.321569 0.176471 1
0.588235 0.321569 0.176471 1
0.588235 0.321569 0.176471 1
0.588235 0.321569 0.176471 1
0.588235 0.321569 0.176471 1
0.588235 0.321569 0.176471 1
0.588235 0.321569 0.176471 1
0.588235 0.321569 0.176471 1
0.588235 0.321569 0.176471 1
0.588235 0.321569 0.176471 1
0.588235 0.321569 0.176471 1
0.588235 0.321569 0.176471 1
0.588235 0.321569 0.176471 1
0.588235 0.321569 0.176471 1
0.588235 0.321569 0.176471 1
0.588235 0.321569 0.176471 1
0.588235 0.321569 0.176471 1
0.588235 0.321569 0.176471 1
0.588235 0.321569 0.176471 1
0.588235 0.321569 0.176471 1
0.588235 0.321569 0.176471 1
0.588235 0.321569 0.176471 1
0.588235 0.321569 0.176471 1
0.588235 0.321569 0.176471 1
0.588235 0.321569 0.176471 1
0.588235 0.321569 0.176471 1
0.588235 0.321569 0.176471 1
0.588235 0.321569 0.176471 1
0.588235 0.321569 0.176471 1
0.588235 0.321569 0.176471 1
0.588235 0.321569 0.176471 1
0.588235 0.321569 0.176471 1
0.588235 0.321569 0.176471 1
0.588235 0.321569 0.176471 1
0.588235 0.321569 0.176471 1
0.588235 0.321569 0.176471 1
0.588235 0.321569 0.176471 1
0.588235 0.321569 0.176471 1
0.588235 0.321569 0.176471 1
0.588235 0.321569 0.176471 1
0.588235 0.321569 0.176471 1
0.588235 0.321569 0.176471 1
0.588235 0.321569 0.176471 1
0.588235 0.321569 0.176471 1
0.588235 0.321569 0.176471 1
0.588235 0.321569 0.176471 1
0.588235 0.321569 0.176471 1
0.588235 0.321569 0.176471 1
0.588235 0.321569 0.176471 1
0.588235 0.321569 0.176471 1
0.588235 0.321569 0.176471 1
0.588235 0.321569 0.176471 1
0.588235 0.321569 0.176471 1
0.588235 0.321569 0.176471 1
0.588235 0.321569 0.176471 1
0.588235 0.321569 0.176471 1
0.588235 0.321569 0.176471 1
0.588235 0.321569 0.176471 1

