# vtk DataFile Version 3.0
Gocad TSurf to VTK
ASCII
DATASET POLYDATA
POINTS 294 float
21569925.000 4580730.000 151.250
21569775.000 4580557.500 91.250
21569950.000 4580630.000 162.500
21569850.000 4580515.000 122.500
21570000.000 4580680.000 230.000
21569700.000 4580600.000 60.000
21569900.000 4580830.000 140.000
21569725.000 4580502.500 66.250
21569500.000 4580390.000 45.000
21569575.000 4580345.000 55.000
21569500.000 4580505.000 82.500
21569650.000 4580662.500 93.750
21569425.000 4580377.500 176.250
21569450.000 4580535.000 182.500
21569400.000 4580220.000 170.000
21569500.000 4580217.500 148.750
21569450.000 4580162.500 148.750
21569600.000 4580215.000 127.500
21569500.000 4580105.000 127.500
21569650.000 4580300.000 65.000
21569700.000 4580212.500 106.250
21569750.000 4580405.000 72.500
21569775.000 4580307.500 78.750
21569925.000 4580472.500 153.750
21569975.000 4580530.000 173.750
21570000.000 4580430.000 185.000
21569800.000 4580210.000 85.000
21569725.000 4580255.000 75.000
21570000.000 4580097.500 71.250
21569925.000 4580005.000 47.500
21570150.000 4580262.500 146.250
21570200.000 4579985.000 57.500
21570200.000 4580307.500 181.250
21570300.000 4580095.000 107.500
21570200.000 4580322.500 226.250
21570284.641 4580277.008 243.707
21570178.125 4580367.906 246.764
21570214.422 4580336.922 245.722
21570048.500 4580478.508 250.485
21570044.438 4580530.000 254.989
21570039.344 4580594.344 260.617
21570038.266 4580607.930 261.806
21570036.953 4580624.563 263.261
21570019.969 4580695.977 268.949
21570013.953 4580721.313 270.966
21570010.359 4580735.953 271.966
21569950.000 4580755.000 185.000
21569996.563 4580792.258 275.810
21569981.656 4580853.133 279.967
21569973.016 4580888.414 282.376
21569958.484 4580980.586 289.327
21569950.000 4580995.000 280.000
21569875.000 4580935.000 133.750
21569962.281 4581003.602 291.671
21569950.000 4581115.000 272.500
21569968.297 4581039.969 295.374
21569900.000 4581080.000 225.000
21569925.000 4581217.500 241.250
21569950.000 4581115.000 272.500
21569850.000 4581165.000 170.000
21569850.000 4581040.000 127.500
21569900.000 4581320.000 210.000
21569925.000 4581217.500 241.250
21569800.000 4581250.000 115.000
21569825.000 4581145.000 121.250
21569700.000 4581090.000 60.000
21569750.000 4581025.000 80.000
21569600.000 4580882.500 121.250
21569700.000 4580865.000 127.500
21569500.000 4580900.000 115.000
21569550.000 4580825.000 101.250
21569600.000 4580750.000 87.500
21569500.000 4580850.000 195.000
21569550.000 4580787.500 161.250
21569500.000 4580735.000 157.500
21569600.000 4580725.000 127.500
21569475.000 4580692.500 188.750
21569500.000 4580620.000 120.000
21569650.000 4580675.000 73.750
21569800.000 4580847.500 133.750
21569800.000 4580960.000 100.000
21569850.000 4580895.000 120.000
21569925.000 4581217.500 241.250
21569950.000 4581115.000 272.500
21569968.297 4581039.969 295.374
21569968.297 4581039.969 295.374
21569968.297 4581039.969 295.374
21569968.297 4581039.969 295.374
21570343.953 4580240.922 243.332
21570400.000 4580185.000 177.500
21570400.000 4580206.828 242.977
21570498.828 4580146.703 242.352
21570600.000 4580062.500 173.750
21570450.000 4579927.500 68.750
21570600.000 4580085.156 241.713
21570676.578 4580038.570 241.228
21570800.000 4579940.000 170.000
21570600.000 4579760.000 30.000
21570777.156 4579977.375 240.592
21570800.000 4579963.477 240.422
21570891.188 4579926.320 241.433
21570950.000 4579902.359 242.086
21570950.000 4579872.500 152.500
21570925.000 4579835.000 128.750
21571056.172 4579859.109 243.263
21571100.000 4579835.000 225.000
21571100.000 4579805.000 135.000
21571076.438 4579863.273 244.635
21571150.000 4579840.000 225.000
21571250.000 4579752.500 162.500
21571106.641 4579869.484 246.678
21571130.250 4579860.250 246.975
21571161.469 4579848.031 247.368
21571234.781 4579819.344 248.290
21571275.000 4579755.000 162.500
21571313.719 4579788.453 249.283
21571319.266 4579785.984 248.812
21571365.297 4579765.438 244.890
21571400.000 4579670.000 100.000
21571469.734 4579718.820 235.993
21571491.922 4579713.336 234.394
21571475.000 4579657.500 107.500
21571425.000 4579595.000 55.000
21571538.359 4579701.852 231.046
21571550.000 4579698.969 230.207
21571550.000 4579645.000 115.000
21571581.266 4579691.234 227.952
21571600.000 4579680.000 212.500
21571625.000 4579632.500 122.500
21571600.000 4579684.656 226.474
21571609.297 4579681.391 225.740
21571650.000 4579650.000 171.250
21571650.000 4579667.094 222.527
21571672.750 4579659.102 220.731
21571700.000 4579620.000 130.000
21571700.000 4579649.523 218.580
21572067.234 4579563.688 192.431
21572075.000 4579525.000 81.250
21571925.000 4579337.500 -76.250
21572075.000 4579561.875 191.878
21572450.000 4579455.000 107.500
21572450.000 4579430.000 32.500
21572086.781 4579559.125 191.039
21572450.000 4579455.000 107.500
21572825.000 4579347.500 21.250
21572086.781 4579559.125 191.039
21572086.781 4579559.125 191.039
21572173.938 4579557.336 186.056
21572192.078 4579558.172 185.800
21572275.906 4579562.016 184.617
21572500.000 4579520.000 147.500
21572500.000 4579529.164 179.570
21572768.609 4579489.781 173.521
21572900.000 4579445.000 81.250
21572900.000 4579470.516 170.562
21573009.875 4579454.406 168.088
21573286.469 4579411.188 152.506
21573300.000 4579370.000 15.000
21573200.000 4579240.000 -65.000
21573300.000 4579409.070 151.743
21572825.000 4579347.500 21.250
21572825.000 4579335.000 -16.250
21572775.000 4579272.500 -68.750
21572350.000 4579305.000 -72.500
21572700.000 4579187.500 -103.750
21572650.000 4579122.500 -103.750
21572200.000 4579135.000 -142.500
21572100.000 4579005.000 -142.500
21571700.000 4579082.500 -181.250
21572625.000 4579077.500 -75.000
21572050.000 4578915.000 -85.000
21572600.000 4579037.500 -41.250
21572575.000 4579017.500 -10.000
21572000.000 4578835.000 -17.500
21571475.000 4578752.500 -95.000
21571950.000 4578795.000 45.000
21571400.000 4578632.500 6.250
21571325.000 4578572.500 100.000
21570900.000 4578590.000 -105.000
21570800.000 4578430.000 30.000
21571000.000 4578770.000 -220.000
21571550.000 4578887.500 -181.250
21570875.000 4578662.500 -112.500
21570950.000 4578797.500 -198.750
21570825.000 4578610.000 -81.250
21570850.000 4578735.000 -120.000
21570750.000 4578490.000 20.000
21570750.000 4578630.000 -57.500
21570725.000 4578455.000 61.250
21570700.000 4578550.000 10.000
21570700.813 4578353.398 151.965
21570652.703 4578397.164 151.622
21570702.422 4578351.938 151.977
21570734.656 4578362.336 151.950
21570650.000 4578399.617 151.603
21570650.000 4578480.000 92.500
21570602.984 4578442.391 151.268
21570650.000 4578610.000 0.000
21570675.000 4578650.000 -33.750
21570575.000 4578505.000 123.750
21570596.984 4578447.852 151.225
21570600.000 4578670.000 -10.000
21570510.547 4578526.484 150.609
21570502.703 4578533.773 150.552
21570553.266 4578487.617 150.913
21570491.156 4578544.820 150.466
21570400.000 4578697.500 103.750
21570355.328 4578661.758 149.540
21570475.000 4578802.500 -20.000
21570625.000 4578960.000 -113.750
21570300.000 4578865.000 52.500
21570350.000 4578935.000 -30.000
21570224.781 4578774.156 148.650
21570206.313 4578790.055 148.525
21570068.094 4578909.063 147.582
21570200.000 4579032.500 1.250
21570057.313 4578918.344 147.509
21570225.000 4579067.500 -40.000
21570275.000 4579120.000 -71.250
21570100.000 4579200.000 -50.000
21569912.078 4579039.695 148.813
21569905.953 4579044.766 148.892
21570028.156 4578943.453 147.310
21569901.016 4579053.336 148.892
21569925.000 4579367.500 5.000
21569798.844 4579230.539 148.887
21569975.000 4579397.500 -16.250
21570300.000 4579390.000 -65.000
21569850.000 4579595.000 17.500
21570125.000 4579540.000 -27.500
21569750.000 4579535.000 60.000
21569772.141 4579280.461 147.429
21569725.000 4579792.500 51.250
21569950.000 4579690.000 10.000
21569575.000 4579702.500 115.000
21569623.203 4579543.453 145.524
21569600.000 4579990.000 85.000
21569775.000 4579840.000 47.500
21569471.969 4579801.109 147.380
21569465.797 4579831.555 147.579
21569544.281 4579677.922 146.493
21569443.594 4579896.156 151.470
21569432.000 4579962.703 156.398
21569429.797 4579975.375 157.337
21569550.000 4580047.500 106.250
21569417.609 4580045.297 162.515
21569415.984 4580054.594 163.204
21569402.531 4580131.805 168.922
21569402.188 4580133.813 169.071
21569400.000 4580146.359 170.000
21570050.000 4579800.000 10.000
21570400.000 4579872.500 43.750
21570175.000 4579595.000 -27.500
21570500.000 4579340.000 -86.250
21570425.000 4579262.500 -82.500
21570725.000 4579617.500 -15.000
21570700.000 4579290.000 -107.500
21570775.000 4579700.000 23.750
21570950.000 4579640.000 17.500
21571050.000 4579730.000 87.500
21571125.000 4579580.000 11.250
21571250.000 4579737.500 117.500
21571175.000 4579625.000 46.250
21571300.000 4579520.000 5.000
21571350.000 4579482.500 -16.250
21571450.000 4579520.000 10.000
21571200.000 4579235.000 -132.500
21571300.000 4579280.000 -115.000
21571100.000 4579190.000 -150.000
21571125.000 4579150.000 -167.500
21570975.000 4579332.500 -105.000
21570900.000 4579240.000 -128.750
21570850.000 4579475.000 -60.000
21570800.000 4578880.000 -135.000
21570675.000 4579007.500 -117.500
21570900.000 4578917.500 -156.250
21570850.000 4578852.500 -156.250
21571000.000 4578955.000 -177.500
21570900.000 4578825.000 -177.500
21571150.000 4579110.000 -185.000
21571100.000 4578992.500 -198.750
21571175.000 4579070.000 -202.500
21571400.000 4579325.000 -97.500
21571200.000 4579030.000 -220.000
21571500.000 4579370.000 -80.000
21571450.000 4579407.500 -58.750
21571475.000 4579445.000 -35.000
21571400.000 4579445.000 -37.500
21570825.000 4578807.500 -127.500
21570550.000 4579135.000 -100.000
21570450.000 4579040.000 -92.500
21569667.094 4579468.672 144.986
21569716.328 4579384.766 144.382
21569785.344 4579255.773 148.150

POLYGONS 470 1880
3 227 218 254
3 244 18 246
3 0 4 46
3 12 10 13
3 197 195 189
3 210 213 212
3 144 143 140
3 128 134 131
3 272 258 255
3 189 188 186
3 234 236 238
3 185 183 278
3 165 166 167
3 49 50 6
3 250 251 31
3 162 164 158
3 156 155 153
3 154 152 153
3 14 16 15
3 163 137 138
3 162 163 164
3 178 179 176
3 115 113 114
3 155 154 153
3 179 188 190
3 164 166 165
3 30 28 31
3 156 153 157
3 178 180 182
3 127 128 131
3 236 244 243
3 65 67 66
3 250 31 29
3 122 264 265
3 293 224 231
3 274 271 256
3 37 36 34
3 118 122 121
3 45 47 46
3 117 116 114
3 264 287 265
3 136 134 137
3 193 177 179
3 54 56 51
3 95 92 96
3 96 257 103
3 90 88 89
3 247 18 248
3 107 105 108
3 254 289 253
3 71 68 67
3 254 290 289
3 197 199 195
3 236 234 232
3 97 255 257
3 118 117 114
3 8 5 10
3 25 28 30
3 206 207 205
3 41 42 2
3 230 292 231
3 60 52 56
3 189 187 198
3 265 128 125
3 21 23 3
3 281 283 282
3 206 201 208
3 273 276 275
3 16 14 249
3 173 176 175
3 133 131 134
3 215 219 220
3 199 201 202
3 264 266 267
3 35 37 34
3 259 106 103
3 185 184 182
3 122 125 121
3 71 75 78
3 195 196 194
3 188 179 186
3 172 173 175
3 130 127 131
3 108 105 109
3 9 17 19
3 286 128 265
3 132 130 131
3 123 120 121
3 244 20 17
3 189 186 187
3 135 133 134
3 174 178 176
3 278 183 277
3 26 29 28
3 252 97 251
3 25 30 32
3 126 124 125
3 10 5 11
3 11 5 78
3 167 181 170
3 60 80 52
3 236 237 29
3 69 70 67
3 289 290 209
3 224 230 231
3 6 5 0
3 57 54 58
3 133 132 131
3 94 91 92
3 219 223 221
3 259 258 260
3 227 254 253
3 152 150 153
3 61 57 62
3 237 233 250
3 93 92 89
3 164 163 166
3 263 264 122
3 26 25 22
3 273 288 276
3 13 77 76
3 255 253 256
3 33 89 32
3 273 201 198
3 219 217 218
3 186 179 184
3 104 102 105
3 245 244 246
3 99 98 96
3 80 68 79
3 261 118 109
3 260 263 262
3 105 106 109
3 280 283 281
3 186 184 187
3 102 106 105
3 8 15 9
3 0 1 2
3 182 180 183
3 51 53 54
3 52 51 56
3 284 283 168
3 58 83 82
3 161 141 162
3 206 210 212
3 47 48 46
3 50 51 6
3 124 121 125
3 120 118 121
3 210 208 211
3 227 219 218
3 228 229 233
3 19 20 27
3 76 77 74
3 39 40 24
3 153 144 158
3 230 291 292
3 207 206 212
3 263 268 266
3 8 9 7
3 166 138 168
3 183 180 280
3 130 129 127
3 64 60 59
3 66 80 60
3 72 73 70
3 10 11 77
3 72 76 74
3 118 263 122
3 57 59 56
3 180 283 280
3 269 277 279
3 232 233 237
3 279 280 281
3 48 6 46
3 236 232 237
3 288 187 185
3 91 90 89
3 262 261 259
3 270 260 272
3 250 233 252
3 165 167 169
3 202 201 203
3 219 227 226
3 196 195 200
3 171 170 173
3 33 93 89
3 263 266 264
3 42 4 2
3 263 118 262
3 213 210 214
3 48 49 6
3 35 34 32
3 197 189 198
3 287 267 282
3 223 224 225
3 120 119 118
3 103 106 102
3 279 267 266
3 199 202 204
3 151 149 150
3 70 73 71
3 228 224 226
3 185 187 184
3 160 140 141
3 102 101 96
3 22 25 23
3 16 18 15
3 142 140 143
3 7 9 21
3 113 112 108
3 97 253 255
3 181 283 180
3 18 244 17
3 104 101 102
3 211 208 290
3 279 281 267
3 269 275 277
3 52 6 51
3 96 97 257
3 255 258 257
3 210 211 215
3 44 45 4
3 230 234 235
3 95 94 92
3 124 123 121
3 276 278 275
3 189 195 188
3 14 8 12
3 215 222 216
3 156 157 159
3 77 11 75
3 106 261 109
3 208 201 209
3 36 38 25
3 287 282 285
3 61 63 59
3 163 138 166
3 268 269 266
3 85 84 58
3 111 110 108
3 229 227 252
3 150 143 144
3 244 236 20
3 219 215 217
3 93 97 92
3 65 69 67
3 6 0 46
3 259 261 106
3 69 72 70
3 20 26 27
3 5 7 1
3 288 198 187
3 21 3 7
3 29 31 28
3 137 134 138
3 201 273 209
3 259 260 262
3 171 172 158
3 289 209 274
3 162 141 163
3 262 118 261
3 144 160 158
3 75 11 78
3 66 68 80
3 53 55 54
3 54 87 58
3 33 31 251
3 2 4 0
3 9 19 21
3 1 3 2
3 217 211 218
3 227 97 252
3 80 79 81
3 272 271 270
3 242 236 243
3 61 59 57
3 112 111 108
3 265 125 122
3 63 65 64
3 98 95 96
3 272 260 258
3 25 32 34
3 160 161 158
3 251 97 93
3 169 171 158
3 150 144 153
3 60 56 59
3 33 251 93
3 71 78 68
3 19 27 22
3 7 3 1
3 206 208 210
3 39 24 25
3 19 17 20
3 274 273 271
3 9 15 17
3 268 263 270
3 41 2 24
3 126 125 127
3 26 236 29
3 96 103 102
3 228 230 224
3 38 39 25
3 21 19 22
3 264 267 287
3 176 179 177
3 236 26 20
3 108 109 114
3 252 251 250
3 152 151 150
3 195 199 200
3 193 179 192
3 8 14 15
3 88 32 89
3 169 167 170
3 166 168 167
3 63 64 59
3 138 284 168
3 168 283 181
3 5 8 7
3 72 74 73
3 61 62 82
3 284 134 286
3 78 79 68
3 149 143 150
3 114 113 108
3 236 239 238
3 188 195 194
3 25 26 28
3 16 249 248
3 91 89 92
3 142 139 140
3 232 234 230
3 281 282 267
3 97 96 92
3 30 31 33
3 226 229 228
3 230 235 291
3 255 256 272
3 239 236 241
3 27 26 22
3 62 57 58
3 36 25 34
3 43 44 4
3 161 162 158
3 110 107 108
3 139 137 140
3 191 188 194
3 3 23 24
3 57 56 54
3 232 230 228
3 180 174 181
3 169 170 171
3 271 268 270
3 188 191 190
3 5 1 0
3 214 215 216
3 234 238 240
3 84 86 83
3 171 173 172
3 74 75 73
3 103 258 259
3 173 174 176
3 119 117 118
3 285 284 286
3 13 10 77
3 279 277 280
3 145 142 143
3 140 137 141
3 73 75 71
3 136 135 134
3 278 277 275
3 50 53 51
3 139 136 137
3 30 33 32
3 226 227 229
3 146 145 143
3 208 209 290
3 45 46 4
3 167 168 181
3 273 198 288
3 265 287 286
3 97 227 253
3 185 278 288
3 158 157 153
3 270 263 260
3 224 293 225
3 77 75 74
3 129 126 127
3 149 148 143
3 179 178 184
3 160 141 161
3 201 205 203
3 141 137 163
3 78 5 79
3 201 206 205
3 170 174 173
3 236 242 241
3 138 134 284
3 23 25 24
3 12 8 10
3 148 147 143
3 184 178 182
3 40 41 24
3 18 16 248
3 289 256 253
3 182 183 185
3 286 134 128
3 88 35 32
3 103 257 258
3 84 83 58
3 65 66 64
3 2 3 24
3 62 58 82
3 29 237 250
3 55 87 54
3 235 234 240
3 109 118 114
3 224 219 226
3 201 199 197
3 228 233 232
3 244 245 243
3 101 100 96
3 18 247 246
3 219 224 223
3 192 179 190
3 42 43 4
3 211 290 218
3 147 146 143
3 100 99 96
3 144 140 160
3 64 66 60
3 79 6 81
3 5 6 79
3 222 215 220
3 268 273 275
3 269 279 266
3 288 278 276
3 201 197 198
3 70 71 67
3 273 268 271
3 18 17 15
3 233 229 252
3 268 275 269
3 272 256 271
3 200 199 204
3 81 6 52
3 287 285 286
3 80 81 52
3 127 125 128
3 220 219 221
3 87 85 58
3 209 273 274
3 215 211 217
3 289 274 256
3 282 284 285
3 22 23 21
3 116 115 114
3 107 104 105
3 164 165 158
3 66 67 68
3 210 215 214
3 170 181 174
3 175 176 177
3 165 169 158
3 180 178 174
3 183 280 277
3 283 284 282
3 254 218 290

POINT_DATA 294
COLOR_SCALARS GocadColor 4
0.392157 0.584314 0.929412 1
0.392157 0.584314 0.929412 1
0.392157 0.584314 0.929412 1
0.392157 0.584314 0.929412 1
0.392157 0.584314 0.929412 1
0.392157 0.584314 0.929412 1
0.392157 0.584314 0.929412 1
0.392157 0.584314 0.929412 1
0.392157 0.584314 0.929412 1
0.392157 0.584314 0.929412 1
0.392157 0.584314 0.929412 1
0.392157 0.584314 0.929412 1
0.392157 0.584314 0.929412 1
0.392157 0.584314 0.929412 1
0.392157 0.584314 0.929412 1
0.392157 0.584314 0.929412 1
0.392157 0.584314 0.929412 1
0.392157 0.584314 0.929412 1
0.392157 0.584314 0.929412 1
0.392157 0.584314 0.929412 1
0.392157 0.584314 0.929412 1
0.392157 0.584314 0.929412 1
0.392157 0.584314 0.929412 1
0.392157 0.584314 0.929412 1
0.392157 0.584314 0.929412 1
0.392157 0.584314 0.929412 1
0.392157 0.584314 0.929412 1
0.392157 0.584314 0.929412 1
0.392157 0.584314 0.929412 1
0.392157 0.584314 0.929412 1
0.392157 0.584314 0.929412 1
0.392157 0.584314 0.929412 1
0.392157 0.584314 0.929412 1
0.392157 0.584314 0.929412 1
0.392157 0.584314 0.929412 1
0.392157 0.584314 0.929412 1
0.392157 0.584314 0.929412 1
0.392157 0.584314 0.929412 1
0.392157 0.584314 0.929412 1
0.392157 0.584314 0.929412 1
0.392157 0.584314 0.929412 1
0.392157 0.584314 0.929412 1
0.392157 0.584314 0.929412 1
0.392157 0.584314 0.929412 1
0.392157 0.584314 0.929412 1
0.392157 0.584314 0.929412 1
0.392157 0.584314 0.929412 1
0.392157 0.584314 0.929412 1
0.392157 0.584314 0.929412 1
0.392157 0.584314 0.929412 1
0.392157 0.584314 0.929412 1
0.392157 0.584314 0.929412 1
0.392157 0.584314 0.929412 1
0.392157 0.584314 0.929412 1
0.392157 0.584314 0.929412 1
0.392157 0.584314 0.929412 1
0.392157 0.584314 0.929412 1
0.392157 0.584314 0.929412 1
0.392157 0.584314 0.929412 1
0.392157 0.584314 0.929412 1
0.392157 0.584314 0.929412 1
0.392157 0.584314 0.929412 1
0.392157 0.584314 0.929412 1
0.392157 0.584314 0.929412 1
0.392157 0.584314 0.929412 1
0.392157 0.584314 0.929412 1
0.392157 0.584314 0.929412 1
0.392157 0.584314 0.929412 1
0.392157 0.584314 0.929412 1
0.392157 0.584314 0.929412 1
0.392157 0.584314 0.929412 1
0.392157 0.584314 0.929412 1
0.392157 0.584314 0.929412 1
0.392157 0.584314 0.929412 1
0.392157 0.584314 0.929412 1
0.392157 0.584314 0.929412 1
0.392157 0.584314 0.929412 1
0.392157 0.584314 0.929412 1
0.392157 0.584314 0.929412 1
0.392157 0.584314 0.929412 1
0.392157 0.584314 0.929412 1
0.392157 0.584314 0.929412 1
0.392157 0.584314 0.929412 1
0.392157 0.584314 0.929412 1
0.392157 0.584314 0.929412 1
0.392157 0.584314 0.929412 1
0.392157 0.584314 0.929412 1
0.392157 0.584314 0.929412 1
0.392157 0.584314 0.929412 1
0.392157 0.584314 0.929412 1
0.392157 0.584314 0.929412 1
0.392157 0.584314 0.929412 1
0.392157 0.584314 0.929412 1
0.392157 0.584314 0.929412 1
0.392157 0.584314 0.929412 1
0.392157 0.584314 0.929412 1
0.392157 0.584314 0.929412 1
0.392157 0.584314 0.929412 1
0.392157 0.584314 0.929412 1
0.392157 0.584314 0.929412 1
0.392157 0.584314 0.929412 1
0.392157 0.584314 0.929412 1
0.392157 0.584314 0.929412 1
0.392157 0.584314 0.929412 1
0.392157 0.584314 0.929412 1
0.392157 0.584314 0.929412 1
0.392157 0.584314 0.929412 1
0.392157 0.584314 0.929412 1
0.392157 0.584314 0.929412 1
0.392157 0.584314 0.929412 1
0.392157 0.584314 0.929412 1
0.392157 0.584314 0.929412 1
0.392157 0.584314 0.929412 1
0.392157 0.584314 0.929412 1
0.392157 0.584314 0.929412 1
0.392157 0.584314 0.929412 1
0.392157 0.584314 0.929412 1
0.392157 0.584314 0.929412 1
0.392157 0.584314 0.929412 1
0.392157 0.584314 0.929412 1
0.392157 0.584314 0.929412 1
0.392157 0.584314 0.929412 1
0.392157 0.584314 0.929412 1
0.392157 0.584314 0.929412 1
0.392157 0.584314 0.929412 1
0.392157 0.584314 0.929412 1
0.392157 0.584314 0.929412 1
0.392157 0.584314 0.929412 1
0.392157 0.584314 0.929412 1
0.392157 0.584314 0.929412 1
0.392157 0.584314 0.929412 1
0.392157 0.584314 0.929412 1
0.392157 0.584314 0.929412 1
0.392157 0.584314 0.929412 1
0.392157 0.584314 0.929412 1
0.392157 0.584314 0.929412 1
0.392157 0.584314 0.929412 1
0.392157 0.584314 0.929412 1
0.392157 0.584314 0.929412 1
0.392157 0.584314 0.929412 1
0.392157 0.584314 0.929412 1
0.392157 0.584314 0.929412 1
0.392157 0.584314 0.929412 1
0.392157 0.584314 0.929412 1
0.392157 0.584314 0.929412 1
0.392157 0.584314 0.929412 1
0.392157 0.584314 0.929412 1
0.392157 0.584314 0.929412 1
0.392157 0.584314 0.929412 1
0.392157 0.584314 0.929412 1
0.392157 0.584314 0.929412 1
0.392157 0.584314 0.929412 1
0.392157 0.584314 0.929412 1
0.392157 0.584314 0.929412 1
0.392157 0.584314 0.929412 1
0.392157 0.584314 0.929412 1
0.392157 0.584314 0.929412 1
0.392157 0.584314 0.929412 1
0.392157 0.584314 0.929412 1
0.392157 0.584314 0.929412 1
0.392157 0.584314 0.929412 1
0.392157 0.584314 0.929412 1
0.392157 0.584314 0.929412 1
0.392157 0.584314 0.929412 1
0.392157 0.584314 0.929412 1
0.392157 0.584314 0.929412 1
0.392157 0.584314 0.929412 1
0.392157 0.584314 0.929412 1
0.392157 0.584314 0.929412 1
0.392157 0.584314 0.929412 1
0.392157 0.584314 0.929412 1
0.392157 0.584314 0.929412 1
0.392157 0.584314 0.929412 1
0.392157 0.584314 0.929412 1
0.392157 0.584314 0.929412 1
0.392157 0.584314 0.929412 1
0.392157 0.584314 0.929412 1
0.392157 0.584314 0.929412 1
0.392157 0.584314 0.929412 1
0.392157 0.584314 0.929412 1
0.392157 0.584314 0.929412 1
0.392157 0.584314 0.929412 1
0.392157 0.584314 0.929412 1
0.392157 0.584314 0.929412 1
0.392157 0.584314 0.929412 1
0.392157 0.584314 0.929412 1
0.392157 0.584314 0.929412 1
0.392157 0.584314 0.929412 1
0.392157 0.584314 0.929412 1
0.392157 0.584314 0.929412 1
0.392157 0.584314 0.929412 1
0.392157 0.584314 0.929412 1
0.392157 0.584314 0.929412 1
0.392157 0.584314 0.929412 1
0.392157 0.584314 0.929412 1
0.392157 0.584314 0.929412 1
0.392157 0.584314 0.929412 1
0.392157 0.584314 0.929412 1
0.392157 0.584314 0.929412 1
0.392157 0.584314 0.929412 1
0.392157 0.584314 0.929412 1
0.392157 0.584314 0.929412 1
0.392157 0.584314 0.929412 1
0.392157 0.584314 0.929412 1
0.392157 0.584314 0.929412 1
0.392157 0.584314 0.929412 1
0.392157 0.584314 0.929412 1
0.392157 0.584314 0.929412 1
0.392157 0.584314 0.929412 1
0.392157 0.584314 0.929412 1
0.392157 0.584314 0.929412 1
0.392157 0.584314 0.929412 1
0.392157 0.584314 0.929412 1
0.392157 0.584314 0.929412 1
0.392157 0.584314 0.929412 1
0.392157 0.584314 0.929412 1
0.392157 0.584314 0.929412 1
0.392157 0.584314 0.929412 1
0.392157 0.584314 0.929412 1
0.392157 0.584314 0.929412 1
0.392157 0.584314 0.929412 1
0.392157 0.584314 0.929412 1
0.392157 0.584314 0.929412 1
0.392157 0.584314 0.929412 1
0.392157 0.584314 0.929412 1
0.392157 0.584314 0.929412 1
0.392157 0.584314 0.929412 1
0.392157 0.584314 0.929412 1
0.392157 0.584314 0.929412 1
0.392157 0.584314 0.929412 1
0.392157 0.584314 0.929412 1
0.392157 0.584314 0.929412 1
0.392157 0.584314 0.929412 1
0.392157 0.584314 0.929412 1
0.392157 0.584314 0.929412 1
0.392157 0.584314 0.929412 1
0.392157 0.584314 0.929412 1
0.392157 0.584314 0.929412 1
0.392157 0.584314 0.929412 1
0.392157 0.584314 0.929412 1
0.392157 0.584314 0.929412 1
0.392157 0.584314 0.929412 1
0.392157 0.584314 0.929412 1
0.392157 0.584314 0.929412 1
0.392157 0.584314 0.929412 1
0.392157 0.584314 0.929412 1
0.392157 0.584314 0.929412 1
0.392157 0.584314 0.929412 1
0.392157 0.584314 0.929412 1
0.392157 0.584314 0.929412 1
0.392157 0.584314 0.929412 1
0.392157 0.584314 0.929412 1
0.392157 0.584314 0.929412 1
0.392157 0.584314 0.929412 1
0.392157 0.584314 0.929412 1
0.392157 0.584314 0.929412 1
0.392157 0.584314 0.929412 1
0.392157 0.584314 0.929412 1
0.392157 0.584314 0.929412 1
0.392157 0.584314 0.929412 1
0.392157 0.584314 0.929412 1
0.392157 0.584314 0.929412 1
0.392157 0.584314 0.929412 1
0.392157 0.584314 0.929412 1
0.392157 0.584314 0.929412 1
0.392157 0.584314 0.929412 1
0.392157 0.584314 0.929412 1
0.392157 0.584314 0.929412 1
0.392157 0.584314 0.929412 1
0.392157 0.584314 0.929412 1
0.392157 0.584314 0.929412 1
0.392157 0.584314 0.929412 1
0.392157 0.584314 0.929412 1
0.392157 0.584314 0.929412 1
0.392157 0.584314 0.929412 1
0.392157 0.584314 0.929412 1
0.392157 0.584314 0.929412 1
0.392157 0.584314 0.929412 1
0.392157 0.584314 0.929412 1
0.392157 0.584314 0.929412 1
0.392157 0.584314 0.929412 1
0.392157 0.584314 0.929412 1
0.392157 0.584314 0.929412 1
0.392157 0.584314 0.929412 1
0.392157 0.584314 0.929412 1
0.392157 0.584314 0.929412 1
0.392157 0.584314 0.929412 1
0.392157 0.584314 0.929412 1
0.392157 0.584314 0.929412 1
0.392157 0.584314 0.929412 1
0.392157 0.584314 0.929412 1
0.392157 0.584314 0.929412 1
0.392157 0.584314 0.929412 1
0.392157 0.584314 0.929412 1

