# vtk DataFile Version 3.0
Gocad TSurf to VTK
ASCII
DATASET POLYDATA
POINTS 578 float
21565200.000 4550590.000 -250.000
21564950.000 4550521.250 -75.625
21564750.000 4550597.500 -57.500
21564550.000 4550321.250 175.000
21565200.000 4550615.000 -277.500
21565200.000 4550565.000 -222.500
21565200.000 4550540.000 -195.000
21565150.000 4550456.250 -83.125
21565200.000 4550515.000 -167.500
21564600.000 4550300.000 170.000
21564050.000 4550310.000 300.000
21565200.000 4550440.000 -85.000
21565200.000 4550465.000 -112.500
21565150.000 4550391.250 -56.875
21564625.000 4550268.750 166.250
21564475.000 4550192.500 232.500
21565100.000 4550342.500 -28.750
21565050.000 4550293.750 -0.625
21565000.000 4550245.000 27.500
21564650.000 4550155.000 182.500
21564950.000 4550196.250 55.625
21564350.000 4550085.000 295.000
21564687.500 4550046.250 191.875
21564104.656 4550081.934 357.869
21564125.516 4550061.055 358.603
21564078.969 4550107.637 356.965
21564053.516 4550133.109 356.070
21564027.250 4550159.406 355.145
21564012.547 4550174.117 354.628
21563966.656 4550213.484 352.560
21563962.766 4550216.957 352.336
21563931.984 4550249.512 350.897
21563922.406 4550268.180 351.036
21563867.578 4550317.602 347.888
21563812.672 4550357.465 344.076
21564050.000 4550672.500 228.750
21563757.984 4550428.461 342.426
21563716.797 4550508.281 342.990
21563887.500 4550605.000 283.750
21563716.516 4550509.250 343.023
21564025.000 4550706.250 231.875
21563700.000 4550700.000 305.000
21564425.000 4550821.250 15.625
21563875.000 4550947.500 270.625
21564925.000 4550650.000 -177.500
21565300.000 4550890.000 -500.000
21565200.000 4550640.000 -305.000
21565212.500 4550671.250 -329.375
21565225.000 4550702.500 -353.750
21565225.000 4550673.750 -338.125
21565250.000 4550707.500 -371.250
21565237.500 4550733.750 -378.125
21565275.000 4550741.250 -404.375
21565250.000 4550765.000 -402.500
21565300.000 4550775.000 -437.500
21565325.000 4550808.750 -470.625
21565350.000 4550842.500 -503.750
21565375.000 4550876.250 -536.875
21565400.000 4550910.000 -570.000
21565337.500 4550918.750 -512.500
21565212.500 4550908.750 -448.125
21565425.000 4550936.250 -573.750
21565450.000 4550962.500 -577.500
21565412.500 4550976.250 -537.500
21565475.000 4550988.750 -581.250
21565500.000 4551015.000 -585.000
21565525.000 4551041.250 -588.750
21565525.000 4551062.500 -575.000
21564687.500 4551021.250 -136.875
21565550.000 4551067.500 -592.500
21565575.000 4551093.750 -596.250
21565600.000 4551120.000 -600.000
21564600.000 4551040.000 -85.000
21565512.500 4551175.000 -545.625
21563800.000 4551028.750 298.125
21563850.000 4550912.500 287.500
21564050.000 4551235.000 202.500
21563800.000 4551146.250 293.750
21564562.500 4551097.500 -61.875
21564337.500 4551442.500 76.875
21564712.500 4551235.000 -115.000
21564862.500 4551495.000 -155.000
21565250.000 4551340.000 -382.500
21564987.500 4551505.000 -219.375
21565625.000 4551252.500 -572.500
21565612.500 4551186.250 -586.250
21565650.000 4551385.000 -545.000
21565675.000 4551326.250 -573.750
21565675.000 4551517.500 -517.500
21565700.000 4551650.000 -490.000
21565725.000 4551463.750 -556.250
21565700.000 4551395.000 -565.000
21565750.000 4551532.500 -547.500
21565775.000 4551601.250 -538.750
21565800.000 4551670.000 -530.000
21564900.000 4551560.000 -165.000
21564300.000 4551500.000 100.000
21563800.000 4551440.000 250.000
21563800.000 4551381.250 258.750
21563787.500 4551381.250 258.750
21563775.000 4551322.500 267.500
21563762.500 4551263.750 276.250
21563750.000 4551205.000 285.000
21563737.500 4551146.250 293.750
21563725.000 4551087.500 302.500
21563712.500 4551028.750 311.250
21563775.000 4550902.500 316.250
21563700.000 4550970.000 320.000
21563700.000 4550936.250 318.125
21563700.000 4550902.500 316.250
21563700.000 4550936.250 318.125
21563700.000 4550868.750 314.375
21563762.500 4550868.750 314.375
21563700.000 4550835.000 312.500
21563700.000 4550801.250 310.625
21563700.000 4550767.500 308.750
21563700.000 4550801.250 310.625
21563700.000 4550733.750 306.875
21563875.000 4550883.750 278.750
21565650.000 4551257.500 -582.500
21565625.000 4551188.750 -591.250
21563700.000 4550620.000 326.250
21563700.000 4550552.980 344.052
21563700.000 4550532.535 342.650
21563700.000 4550552.980 344.052
21563700.000 4550532.535 342.650
21564145.406 4550041.156 359.303
21564164.391 4550022.152 359.971
21564287.500 4550031.250 326.250
21564178.609 4550007.918 360.471
21564191.969 4549994.547 360.941
21564204.547 4549981.965 361.384
21564216.391 4549970.102 361.801
21564700.000 4550010.000 195.000
21564255.922 4549906.383 361.527
21564775.000 4550081.250 143.750
21564800.000 4550050.000 140.000
21564850.000 4550098.750 111.875
21564900.000 4550147.500 83.750
21565200.000 4550490.000 -140.000
21563700.000 4550552.980 344.052
21563700.000 4550500.000 358.125
21563700.000 4550552.980 344.052
21563700.000 4550532.535 342.650
21563700.000 4550500.000 348.750
21564100.000 4555290.000 125.000
21563925.000 4555365.000 181.250
21564000.000 4555430.000 151.250
21563418.625 4555450.070 317.973
21564525.000 4555512.500 15.625
21563750.000 4555340.000 237.500
21563575.000 4555315.000 293.750
21563444.047 4555395.699 319.394
21563448.766 4555385.645 319.657
21563435.516 4555413.949 318.917
21563427.047 4555432.074 318.443
21563454.563 4555373.242 319.981
21563457.469 4555369.254 319.775
21563469.563 4555352.664 318.919
21563483.703 4555333.258 317.917
21563490.875 4555323.410 317.408
21563497.766 4555313.969 316.921
21563504.375 4555304.910 316.453
21563950.000 4555180.000 173.750
21563510.156 4555267.969 314.699
21564937.500 4555146.250 -87.500
21564800.000 4555020.000 -67.500
21565375.000 4555273.750 -151.250
21565200.000 4555440.000 -125.000
21565312.500 4555153.750 -176.875
21565675.000 4555171.250 -301.875
21565075.000 4554932.500 -167.500
21565275.000 4554935.000 -251.250
21564750.000 4554840.000 -53.750
21563650.000 4555000.000 275.000
21565387.500 4554867.500 -313.125
21565187.500 4554656.250 -237.500
21565837.500 4554852.500 -474.375
21566175.000 4554905.000 -573.750
21565725.000 4554835.000 -441.250
21566550.000 4554850.000 -778.750
21565612.500 4554778.750 -405.000
21566600.000 4554820.000 -825.000
21566575.000 4554835.000 -801.875
21566575.000 4554796.250 -798.750
21566600.000 4554797.500 -810.625
21566500.000 4554725.000 -720.000
21566175.000 4554672.500 -555.000
21566575.000 4554775.000 -786.250
21566562.500 4554752.500 -766.875
21566600.000 4554775.000 -796.250
21566600.000 4554752.500 -781.875
21566600.000 4554730.000 -767.500
21566550.000 4554730.000 -747.500
21566600.000 4554707.500 -753.125
21566537.500 4554707.500 -728.125
21566600.000 4554685.000 -738.750
21566512.500 4554662.500 -689.375
21566600.000 4554662.500 -724.375
21566450.000 4554677.500 -667.500
21566437.500 4554613.750 -637.500
21564962.500 4554597.500 -140.625
21565987.500 4554540.000 -472.500
21564700.000 4554790.000 -40.000
21564687.500 4554420.000 -14.375
21564550.000 4554820.000 5.000
21563517.656 4554770.293 290.069
21563537.266 4554900.414 297.078
21563532.078 4554866.047 295.227
21563544.094 4554945.816 299.524
21563557.344 4555018.531 302.798
21563555.969 4555029.570 303.319
21563548.781 4555046.262 304.145
21563650.000 4555080.000 271.250
21563544.875 4555068.680 305.212
21563875.000 4555155.000 198.125
21563534.891 4555126.047 307.943
21563537.969 4555108.383 307.102
21563529.125 4555159.070 309.515
21563524.609 4555185.035 310.751
21563520.219 4555210.188 311.949
21563519.047 4555216.938 312.270
21563514.547 4555242.785 313.500
21563541.281 4555089.320 306.195
21563522.578 4554802.875 291.824
21563517.750 4554770.844 290.099
21563527.594 4554760.930 289.480
21563587.500 4554741.250 277.500
21563566.953 4554722.758 287.088
21564450.000 4554665.000 57.500
21563937.500 4554626.250 207.500
21563603.313 4554687.496 284.878
21564162.500 4554508.750 165.000
21564500.000 4554330.000 70.000
21563752.000 4554543.266 275.840
21563773.641 4554518.207 274.301
21563728.125 4554566.430 277.292
21563677.188 4554615.836 280.388
21563787.438 4554419.441 268.767
21563875.000 4554318.750 242.500
21563900.000 4554290.000 235.000
21564387.500 4554243.750 128.125
21564512.500 4554305.000 73.750
21564050.000 4554195.000 230.000
21563925.000 4554265.000 235.000
21564162.500 4554123.750 226.250
21564562.500 4554080.000 116.875
21564100.000 4554090.000 235.000
21564150.000 4554000.000 235.000
21564075.000 4554115.000 235.000
21564025.000 4554165.000 235.000
21564050.000 4554140.000 235.000
21564050.000 4554140.000 235.000
21564000.000 4554190.000 235.000
21563975.000 4554215.000 235.000
21563950.000 4554240.000 235.000
21563925.000 4554265.000 235.000
21564025.000 4554165.000 235.000
21564200.000 4553910.000 235.000
21564250.000 4553820.000 235.000
21564250.000 4553915.000 230.000
21564375.000 4553830.000 201.250
21564825.000 4553877.500 88.750
21564862.500 4554233.750 -25.625
21564900.000 4553762.500 85.000
21565050.000 4553897.500 -23.750
21564300.000 4553730.000 235.000
21564275.000 4553775.000 235.000
21564750.000 4553681.250 137.500
21564900.000 4553680.000 85.000
21564325.000 4553701.250 233.750
21564350.000 4553672.500 232.500
21564375.000 4553643.750 231.250
21564400.000 4553615.000 230.000
21564650.000 4553608.750 172.500
21564425.000 4553586.250 228.750
21564450.000 4553557.500 227.500
21564475.000 4553528.750 226.250
21564500.000 4553500.000 225.000
21564900.000 4553570.000 85.000
21564825.000 4553416.250 141.250
21565075.000 4553272.500 106.875
21564525.000 4553457.500 226.250
21564550.000 4553415.000 227.500
21564575.000 4553372.500 228.750
21564775.000 4553313.750 178.750
21564600.000 4553330.000 230.000
21564625.000 4553287.500 231.250
21564650.000 4553245.000 232.500
21564725.000 4553211.250 216.250
21564675.000 4553202.500 233.750
21564700.000 4553160.000 235.000
21565100.000 4553230.000 110.000
21564762.500 4553103.750 228.125
21565137.500 4553035.000 136.250
21564700.000 4553035.000 246.250
21564737.500 4552972.500 251.875
21564700.000 4552972.500 251.875
[...]
POINT_DATA 578
COLOR_SCALARS GocadColor 4
1 0.843137 0 1
1 0.843137 0 1
1 0.843137 0 1
1 0.843137 0 1
1 0.843137 0 1
1 0.843137 0 1
1 0.843137 0 1
1 0.843137 0 1
1 0.843137 0 1
1 0.843137 0 1
1 0.843137 0 1
1 0.843137 0 1
1 0.843137 0 1
1 0.843137 0 1
1 0.843137 0 1
1 0.843137 0 1
1 0.843137 0 1
1 0.843137 0 1
1 0.843137 0 1
1 0.843137 0 1
1 0.843137 0 1
1 0.843137 0 1
1 0.843137 0 1
1 0.843137 0 1
1 0.843137 0 1
1 0.843137 0 1
1 0.843137 0 1
1 0.843137 0 1
1 0.843137 0 1
1 0.843137 0 1
1 0.843137 0 1
1 0.843137 0 1
1 0.843137 0 1
1 0.843137 0 1
1 0.843137 0 1
1 0.843137 0 1
1 0.843137 0 1
1 0.843137 0 1
1 0.843137 0 1
1 0.843137 0 1
1 0.843137 0 1
1 0.843137 0 1
1 0.843137 0 1
1 0.843137 0 1
1 0.843137 0 1
1 0.843137 0 1
1 0.843137 0 1
1 0.843137 0 1
1 0.843137 0 1
1 0.843137 0 1
1 0.843137 0 1
1 0.843137 0 1
1 0.843137 0 1
1 0.843137 0 1
1 0.843137 0 1
1 0.843137 0 1
1 0.843137 0 1
1 0.843137 0 1
1 0.843137 0 1
1 0.843137 0 1
1 0.843137 0 1
1 0.843137 0 1
1 0.843137 0 1
1 0.843137 0 1
1 0.843137 0 1
1 0.843137 0 1
1 0.843137 0 1
1 0.843137 0 1
1 0.843137 0 1
1 0.843137 0 1
1 0.843137 0 1
1 0.843137 0 1
1 0.843137 0 1
1 0.843137 0 1
1 0.843137 0 1
1 0.843137 0 1
1 0.843137 0 1
1 0.843137 0 1
1 0.843137 0 1
1 0.843137 0 1
1 0.843137 0 1
1 0.843137 0 1
1 0.843137 0 1
1 0.843137 0 1
1 0.843137 0 1
1 0.843137 0 1
1 0.843137 0 1
1 0.843137 0 1
1 0.843137 0 1
1 0.843137 0 1
1 0.843137 0 1
1 0.843137 0 1
1 0.843137 0 1
1 0.843137 0 1
1 0.843137 0 1
1 0.843137 0 1
1 0.843137 0 1
1 0.843137 0 1
1 0.843137 0 1
1 0.843137 0 1
1 0.843137 0 1
1 0.843137 0 1
1 0.843137 0 1
1 0.843137 0 1
1 0.843137 0 1
1 0.843137 0 1
1 0.843137 0 1
1 0.843137 0 1
1 0.843137 0 1
1 0.843137 0 1
1 0.843137 0 1
1 0.843137 0 1
1 0.843137 0 1
1 0.843137 0 1
1 0.843137 0 1
1 0.843137 0 1
1 0.843137 0 1
1 0.843137 0 1
1 0.843137 0 1
1 0.843137 0 1
1 0.843137 0 1
1 0.843137 0 1
1 0.843137 0 1
1 0.843137 0 1
1 0.843137 0 1
1 0.843137 0 1
1 0.843137 0 1
1 0.843137 0 1
1 0.843137 0 1
1 0.843137 0 1
1 0.843137 0 1
1 0.843137 0 1
1 0.843137 0 1
1 0.843137 0 1
1 0.843137 0 1
1 0.843137 0 1
1 0.843137 0 1
1 0.843137 0 1
1 0.843137 0 1
1 0.843137 0 1
1 0.843137 0 1
1 0.843137 0 1
1 0.843137 0 1
1 0.843137 0 1
1 0.843137 0 1
1 0.843137 0 1
1 0.843137 0 1
1 0.843137 0 1
1 0.843137 0 1
1 0.843137 0 1
1 0.843137 0 1
1 0.843137 0 1
1 0.843137 0 1
1 0.843137 0 1
1 0.843137 0 1
1 0.843137 0 1
1 0.843137 0 1
1 0.843137 0 1
1 0.843137 0 1
1 0.843137 0 1
1 0.843137 0 1
1 0.843137 0 1
1 0.843137 0 1
1 0.843137 0 1
1 0.843137 0 1
1 0.843137 0 1
1 0.843137 0 1
1 0.843137 0 1
1 0.843137 0 1
1 0.843137 0 1
1 0.843137 0 1
1 0.843137 0 1
1 0.843137 0 1
1 0.843137 0 1
1 0.843137 0 1
1 0.843137 0 1
1 0.843137 0 1
1 0.843137 0 1
1 0.843137 0 1
1 0.843137 0 1
1 0.843137 0 1
1 0.843137 0 1
1 0.843137 0 1
1 0.843137 0 1
1 0.843137 0 1
1 0.843137 0 1
1 0.843137 0 1
1 0.843137 0 1
1 0.843137 0 1
1 0.843137 0 1
1 0.843137 0 1
1 0.843137 0 1
1 0.843137 0 1
1 0.843137 0 1
1 0.843137 0 1
1 0.843137 0 1
1 0.843137 0 1
1 0.843137 0 1
1 0.843137 0 1
1 0.843137 0 1
1 0.843137 0 1
1 0.843137 0 1
1 0.843137 0 1
1 0.843137 0 1
1 0.843137 0 1
1 0.843137 0 1
1 0.843137 0 1
1 0.843137 0 1
1 0.843137 0 1
1 0.843137 0 1
1 0.843137 0 1
1 0.843137 0 1
1 0.843137 0 1
1 0.843137 0 1
1 0.843137 0 1
1 0.843137 0 1
1 0.843137 0 1
1 0.843137 0 1
1 0.843137 0 1
1 0.843137 0 1
1 0.843137 0 1
1 0.843137 0 1
1 0.843137 0 1
1 0.843137 0 1
1 0.843137 0 1
1 0.843137 0 1
1 0.843137 0 1
1 0.843137 0 1
1 0.843137 0 1
1 0.843137 0 1
1 0.843137 0 1
1 0.843137 0 1
1 0.843137 0 1
1 0.843137 0 1
1 0.843137 0 1
1 0.843137 0 1
1 0.843137 0 1
1 0.843137 0 1
1 0.843137 0 1
1 0.843137 0 1
1 0.843137 0 1
1 0.843137 0 1
1 0.843137 0 1
1 0.843137 0 1
1 0.843137 0 1
1 0.843137 0 1
1 0.843137 0 1
1 0.843137 0 1
1 0.843137 0 1
1 0.843137 0 1
1 0.843137 0 1
1 0.843137 0 1
1 0.843137 0 1
1 0.843137 0 1
1 0.843137 0 1
1 0.843137 0 1
1 0.843137 0 1
1 0.843137 0 1
1 0.843137 0 1
1 0.843137 0 1
1 0.843137 0 1
1 0.843137 0 1
1 0.843137 0 1
1 0.843137 0 1
1 0.843137 0 1
1 0.843137 0 1
1 0.843137 0 1
1 0.843137 0 1
1 0.843137 0 1
1 0.843137 0 1
1 0.843137 0 1
1 0.843137 0 1
1 0.843137 0 1
1 0.843137 0 1
1 0.843137 0 1
1 0.843137 0 1
1 0.843137 0 1
1 0.843137 0 1
1 0.843137 0 1
1 0.843137 0 1
1 0.843137 0 1
1 0.843137 0 1
1 0.843137 0 1
1 0.843137 0 1
1 0.843137 0 1
1 0.843137 0 1
1 0.843137 0 1
1 0.843137 0 1
1 0.843137 0 1
1 0.843137 0 1
1 0.843137 0 1
1 0.843137 0 1
1 0.843137 0 1
1 0.843137 0 1
1 0.843137 0 1
1 0.843137 0 1
1 0.843137 0 1
1 0.843137 0 1
1 0.843137 0 1
1 0.843137 0 1
1 0.843137 0 1
1 0.843137 0 1
1 0.843137 0 1
1 0.843137 0 1
1 0.843137 0 1
1 0.843137 0 1
1 0.843137 0 1
1 0.843137 0 1
1 0.843137 0 1
1 0.843137 0 1
1 0.843137 0 1
1 0.843137 0 1
1 0.843137 0 1
1 0.843137 0 1
1 0.843137 0 1
1 0.843137 0 1
1 0.843137 0 1
1 0.843137 0 1
1 0.843137 0 1
1 0.843137 0 1
1 0.843137 0 1
1 0.843137 0 1
1 0.843137 0 1
1 0.843137 0 1
1 0.843137 0 1
1 0.843137 0 1
1 0.843137 0 1
1 0.843137 0 1
1 0.843137 0 1
1 0.843137 0 1
1 0.843137 0 1
1 0.843137 0 1
1 0.843137 0 1
1 0.843137 0 1
1 0.843137 0 1
1 0.843137 0 1
1 0.843137 0 1
1 0.843137 0 1
1 0.843137 0 1
1 0.843137 0 1
1 0.843137 0 1
1 0.843137 0 1
1 0.843137 0 1
1 0.843137 0 1
1 0.843137 0 1
1 0.843137 0 1
1 0.843137 0 1
1 0.843137 0 1
1 0.843137 0 1
1 0.843137 0 1
1 0.843137 0 1
1 0.843137 0 1
1 0.843137 0 1
1 0.843137 0 1
1 0.843137 0 1
1 0.843137 0 1
1 0.843137 0 1
1 0.843137 0 1
1 0.843137 0 1
1 0.843137 0 1
1 0.843137 0 1
1 0.843137 0 1
1 0.843137 0 1
1 0.843137 0 1
1 0.843137 0 1
1 0.843137 0 1
1 0.843137 0 1
1 0.843137 0 1
1 0.843137 0 1
1 0.843137 0 1
1 0.843137 0 1
1 0.843137 0 1
1 0.843137 0 1
1 0.843137 0 1
1 0.843137 0 1
1 0.843137 0 1
1 0.843137 0 1
1 0.843137 0 1
1 0.843137 0 1
1 0.843137 0 1
1 0.843137 0 1
1 0.843137 0 1
1 0.843137 0 1
1 0.843137 0 1
1 0.843137 0 1
1 0.843137 0 1
1 0.843137 0 1
1 0.843137 0 1
1 0.843137 0 1
1 0.843137 0 1
1 0.843137 0 1
1 0.843137 0 1
1 0.843137 0 1
1 0.843137 0 1
1 0.843137 0 1
1 0.843137 0 1
1 0.843137 0 1
1 0.843137 0 1
1 0.843137 0 1
1 0.843137 0 1
1 0.843137 0 1
1 0.843137 0 1
1 0.843137 0 1
1 0.843137 0 1
1 0.843137 0 1
1 0.843137 0 1
1 0.843137 0 1
1 0.843137 0 1
1 0.843137 0 1
1 0.843137 0 1
1 0.843137 0 1
1 0.843137 0 1
1 0.843137 0 1
1 0.843137 0 1
1 0.843137 0 1
1 0.843137 0 1
1 0.843137 0 1
1 0.843137 0 1
1 0.843137 0 1
1 0.843137 0 1
1 0.843137 0 1
1 0.843137 0 1
1 0.843137 0 1
1 0.843137 0 1
1 0.843137 0 1
1 0.843137 0 1
1 0.843137 0 1
1 0.843137 0 1
1 0.843137 0 1
1 0.843137 0 1
1 0.843137 0 1
1 0.843137 0 1
1 0.843137 0 1
1 0.843137 0 1
1 0.843137 0 1
1 0.843137 0 1
1 0.843137 0 1
1 0.843137 0 1
1 0.843137 0 1
1 0.843137 0 1
1 0.843137 0 1
1 0.843137 0 1
1 0.843137 0 1
1 0.843137 0 1
1 0.843137 0 1
1 0.843137 0 1
1 0.843137 0 1
1 0.843137 0 1
1 0.843137 0 1
1 0.843137 0 1
1 0.843137 0 1
1 0.843137 0 1
1 0.843137 0 1
1 0.843137 0 1
1 0.843137 0 1
1 0.843137 0 1
1 0.843137 0 1
1 0.843137 0 1
1 0.843137 0 1
1 0.843137 0 1
1 0.843137 0 1
1 0.843137 0 1
1 0.843137 0 1
1 0.843137 0 1
1 0.843137 0 1
1 0.843137 0 1
1 0.843137 0 1
1 0.843137 0 1
1 0.843137 0 1
1 0.843137 0 1
1 0.843137 0 1
1 0.843137 0 1
1 0.843137 0 1
1 0.843137 0 1
1 0.843137 0 1
1 0.843137 0 1
1 0.843137 0 1
1 0.843137 0 1
1 0.843137 0 1
1 0.843137 0 1
1 0.843137 0 1
1 0.843137 0 1
1 0.843137 0 1
1 0.843137 0 1
1 0.843137 0 1
1 0.843137 0 1
1 0.843137 0 1
1 0.843137 0 1
1 0.843137 0 1
1 0.843137 0 1
1 0.843137 0 1
1 0.843137 0 1
1 0.843137 0 1
1 0.843137 0 1
1 0.843137 0 1
1 0.843137 0 1
1 0.843137 0 1
1 0.843137 0 1
1 0.843137 0 1
1 0.843137 0 1
1 0.843137 0 1
1 0.843137 0 1
1 0.843137 0 1
1 0.843137 0 1
1 0.843137 0 1
1 0.843137 0 1
1 0.843137 0 1
1 0.843137 0 1
1 0.843137 0 1
1 0.843137 0 1
1 0.843137 0 1
1 0.843137 0 1
1 0.843137 0 1
1 0.843137 0 1
1 0.843137 0 1
1 0.843137 0 1
1 0.843137 0 1
1 0.843137 0 1
1 0.843137 0 1
1 0.843137 0 1
1 0.843137 0 1
1 0.843137 0 1
1 0.843137 0 1
1 0.843137 0 1
1 0.843137 0 1
1 0.843137 0 1
1 0.843137 0 1
1 0.843137 0 1
1 0.843137 0 1
1 0.843137 0 1
1 0.843137 0 1
1 0.843137 0 1
1 0.843137 0 1
1 0.843137 0 1
1 0.843137 0 1
1 0.843137 0 1
1 0.843137 0 1
1 0.843137 0 1
1 0.843137 0 1
1 0.843137 0 1
1 0.843137 0 1
1 0.843137 0 1
1 0.843137 0 1
1 0.843137 0 1
1 0.843137 0 1
1 0.843137 0 1
1 0.843137 0 1
1 0.843137 0 1
1 0.843137 0 1
1 0.843137 0 1
1 0.843137 0 1
1 0.843137 0 1
1 0.843137 0 1
1 0.843137 0 1
1 0.843137 0 1
1 0.843137 0 1
1 0.843137 0 1
1 0.843137 0 1
1 0.843137 0 1
1 0.843137 0 1
1 0.843137 0 1
1 0.843137 0 1
1 0.843137 0 1
1 0.843137 0 1
1 0.843137 0 1
1 0.843137 0 1
1 0.843137 0 1
1 0.843137 0 1
1 0.843137 0 1
1 0.843137 0 1
1 0.843137 0 1
1 0.843137 0 1
1 0.843137 0 1
1 0.843137 0 1
1 0.843137 0 1
1 0.843137 0 1
1 0.843137 0 1
1 0.843137 0 1

