# vtk DataFile Version 3.0
Gocad TSurf to VTK
ASCII
DATASET POLYDATA
POINTS 202 float
21543400.000 4560225.000 -397.500
21543400.000 4560405.000 -346.250
21543550.000 4560322.500 -376.250
21543500.000 4560530.000 -315.000
21543650.000 4560120.000 -402.500
21543300.000 4560280.000 -377.500
21543300.000 4560440.000 -332.500
21543250.000 4560127.500 -418.750
21543625.000 4559970.000 -426.250
21543200.000 4560155.000 -408.750
21543100.000 4560350.000 -350.000
21543100.000 4560030.000 -440.000
21542900.000 4560260.000 -367.500
21543600.000 4559820.000 -450.000
21543050.000 4559612.500 -375.000
21543750.000 4559927.500 -430.000
21544200.000 4559630.000 -440.000
21543500.000 4559470.000 -367.500
21544200.000 4559785.000 -422.500
21543900.000 4560035.000 -410.000
21544325.000 4559735.000 -426.250
21544200.000 4559940.000 -405.000
21544700.000 4559460.000 -370.000
21543875.000 4559342.500 -315.000
21544700.000 4559607.500 -373.750
21544450.000 4559840.000 -412.500
21544800.000 4559562.500 -366.250
21544900.000 4559665.000 -362.500
21545000.000 4559320.000 -245.000
21544100.000 4559237.500 -221.250
21545025.000 4559457.500 -272.500
21545125.000 4559417.500 -248.750
21545050.000 4559595.000 -300.000
21545250.000 4559515.000 -252.500
21545075.000 4559732.500 -327.500
21545000.000 4559767.500 -358.750
21545375.000 4559612.500 -256.250
21545100.000 4559870.000 -355.000
21545500.000 4559710.000 -260.000
21545425.000 4560407.500 -365.000
21545125.000 4560542.500 -387.500
21545725.000 4560287.500 -293.750
21545750.000 4560945.000 -375.000
21545775.000 4560250.000 -307.500
21546050.000 4560790.000 -355.000
21545850.000 4560195.000 -315.000
21546200.000 4560680.000 -370.000
21545975.000 4560117.500 -315.000
21546050.000 4560057.500 -307.500
21546450.000 4560525.000 -370.000
21546125.000 4560020.000 -280.000
21546600.000 4560405.000 -355.000
21546750.000 4560330.000 -300.000
21547150.000 4560752.500 -402.500
21547375.000 4560640.000 -320.000
21546925.000 4560932.500 -425.000
21547400.000 4561340.000 -480.000
21547700.000 4561100.000 -450.000
21546900.000 4561650.000 -480.000
21546550.000 4561165.000 -425.000
21547375.000 4562000.000 -442.500
21547150.000 4562165.000 -420.000
21547750.000 4561767.500 -442.500
21547850.000 4562350.000 -405.000
21547975.000 4561587.500 -420.000
21548250.000 4562075.000 -390.000
21548200.000 4561475.000 -337.500
21548400.000 4562000.000 -335.000
21548000.000 4560950.000 -340.000
21548250.000 4561447.500 -347.500
21548500.000 4561945.000 -355.000
21548325.000 4561412.500 -345.000
21548400.000 4561375.000 -337.500
21548650.000 4561875.000 -350.000
21548475.000 4561337.500 -306.250
21548800.000 4561800.000 -335.000
21548950.000 4561725.000 -272.500
21549200.000 4562225.000 -332.500
21549425.000 4562112.500 -238.750
21548975.000 4562337.500 -355.000
21549300.000 4562800.000 -360.000
21549600.000 4562650.000 -330.000
21549000.000 4562940.000 -370.000
21548750.000 4562442.500 -362.500
21549875.000 4563400.000 -342.500
21549725.000 4563482.500 -312.500
21550100.000 4563295.000 -335.000
21550750.000 4563860.000 -315.000
21550325.000 4563182.500 -312.500
21550900.000 4563790.000 -310.000
21550325.000 4563115.000 -312.500
21551050.000 4563580.000 -295.000
21549900.000 4562500.000 -205.000
21550550.000 4563002.500 -218.750
21550550.000 4562942.500 -201.250
21551200.000 4563385.000 -197.500
21551200.000 4563505.000 -232.500
21551850.000 4563827.500 -193.750
21551850.000 4564007.500 -246.250
21551775.000 4564045.000 -277.500
21552500.000 4564270.000 -190.000
21552500.000 4564510.000 -260.000
21552750.000 4564627.500 -190.000
21552750.000 4564807.500 -242.500
21552500.000 4564780.000 -260.000
21553000.000 4564985.000 -190.000
21553000.000 4565105.000 -225.000
21552750.000 4565010.000 -242.500
21553250.000 4565342.500 -190.000
21553250.000 4565402.500 -207.500
21553000.000 4565240.000 -225.000
21553500.000 4565700.000 -190.000
21553250.000 4565470.000 -207.500
21553250.000 4565557.500 -197.500
21553000.000 4565415.000 -205.000
21553250.000 4565580.000 -197.500
21553000.000 4565430.000 -205.000
21553500.000 4565730.000 -190.000
21553250.000 4565610.000 -197.500
21553000.000 4565450.000 -205.000
21553500.000 4565770.000 -190.000
21552750.000 4565290.000 -212.500
21552750.000 4565280.000 -212.500
21552500.000 4565130.000 -220.000
21552750.000 4565272.500 -212.500
21551575.000 4564610.000 -247.500
21551575.000 4564347.500 -277.500
21551625.000 4564320.000 -287.500
21550650.000 4564090.000 -275.000
21550650.000 4563915.000 -295.000
21549725.000 4563570.000 -302.500
21548800.000 4563050.000 -330.000
21548600.000 4562525.000 -332.500
21548525.000 4562562.500 -360.000
21548450.000 4562622.500 -367.500
21548100.000 4562195.000 -405.000
21548325.000 4562700.000 -367.500
21548250.000 4562755.000 -360.000
21548200.000 4562792.500 -346.250
21547700.000 4562460.000 -390.000
21547600.000 4562535.000 -362.500
21547000.000 4562277.500 -378.750
21546600.000 4561870.000 -450.000
21546400.000 4562020.000 -395.000
21546325.000 4561330.000 -402.500
21546175.000 4561442.500 -361.250
21545950.000 4560865.000 -327.500
21546075.000 4561482.500 -385.000
21545975.000 4561527.500 -392.500
21545850.000 4561577.500 -388.750
21545550.000 4561035.000 -390.000
21545300.000 4561135.000 -382.500
21545725.000 4561620.000 -385.000
21545050.000 4561220.000 -375.000
21545675.000 4561647.500 -375.000
21544950.000 4561275.000 -355.000
21544375.000 4560820.000 -365.000
21544225.000 4560902.500 -335.000
21544750.000 4560692.500 -376.250
21544200.000 4560250.000 -370.000
21544700.000 4560050.000 -385.000
21544700.000 4559902.500 -381.250
21544575.000 4559945.000 -398.750
21544700.000 4559755.000 -377.500
21544200.000 4560095.000 -387.500
21544050.000 4560142.500 -390.000
21543700.000 4560420.000 -355.000
21543675.000 4560270.000 -378.750
21551700.000 4564285.000 -285.000
21551050.000 4563715.000 -295.000
21551775.000 4564247.500 -277.500
21543200.000 4559155.000 -197.500
21543050.000 4559225.000 -260.000
21542300.000 4559072.500 -173.750
21542800.000 4559310.000 -295.000
21542225.000 4559107.500 -205.000
21542500.000 4559405.000 -300.000
21542100.000 4559150.000 -222.500
21542675.000 4559770.000 -367.500
21542250.000 4559510.000 -295.000
21541950.000 4559197.500 -225.000
21542375.000 4559875.000 -326.250
21542700.000 4560170.000 -385.000
21542050.000 4559580.000 -267.500
21541825.000 4559250.000 -222.500
21542225.000 4559935.000 -285.000
21542500.000 4560250.000 -330.000
21541950.000 4559620.000 -240.000
21541725.000 4559285.000 -208.750
21541950.000 4559640.000 -245.000
21541675.000 4559335.000 -202.500
21542225.000 4559945.000 -287.500
21541950.000 4559650.000 -245.000
21542225.000 4559950.000 -287.500
21541675.000 4559350.000 -202.500
21541400.000 4559050.000 -160.000
21541400.000 4559030.000 -160.000
21541675.000 4559305.000 -195.000
21541400.000 4558990.000 -150.000
21542750.000 4560320.000 -326.250
21543000.000 4560390.000 -322.500
21543250.000 4560460.000 -318.750

POLYGONS 350 1400
3 55 59 58
3 6 10 201
3 26 28 22
3 175 172 173
3 145 143 142
3 156 159 166
3 153 156 155
3 96 99 98
3 147 146 42
3 39 38 37
3 184 180 198
3 139 60 61
3 156 166 157
3 5 9 10
3 9 11 12
3 173 172 171
3 140 61 141
3 74 68 72
3 107 123 124
3 175 173 198
3 79 83 82
3 65 64 62
3 79 80 77
3 161 162 160
3 19 18 15
3 108 106 109
3 144 142 58
3 164 21 165
3 31 30 32
3 128 126 129
3 132 133 131
3 48 49 51
3 177 176 174
3 123 104 125
3 43 41 44
3 40 160 158
3 7 13 11
3 176 178 14
3 71 70 73
3 29 22 28
3 26 22 24
3 127 104 168
3 34 32 35
3 93 91 96
3 96 95 93
3 134 135 136
3 7 5 0
3 15 13 8
3 147 42 148
3 96 97 95
3 119 118 115
3 115 117 111
3 118 120 117
3 48 38 47
3 105 103 106
3 180 176 177
3 59 144 58
3 181 182 178
3 64 56 62
3 170 101 99
3 65 62 135
3 10 12 200
3 111 108 109
3 7 11 9
3 175 174 172
3 8 13 7
3 148 149 143
3 131 130 85
3 31 28 30
3 20 21 25
3 126 104 127
3 15 16 13
3 33 32 34
3 36 34 37
3 149 150 151
3 130 129 85
3 152 151 153
3 111 112 113
3 103 107 106
3 185 186 181
3 44 144 59
3 42 41 39
3 167 2 166
3 73 83 79
3 30 28 26
3 193 186 191
3 194 190 195
3 49 59 55
3 165 167 166
3 110 114 112
3 87 126 127
3 148 42 150
3 87 129 126
3 83 132 82
3 144 145 142
3 0 5 1
3 47 46 49
3 128 129 130
3 82 80 79
3 47 38 45
3 153 158 156
3 80 82 84
3 80 81 77
3 136 135 63
3 151 40 158
3 69 66 70
3 51 49 55
3 27 163 35
3 34 35 37
3 33 34 36
3 183 185 181
3 118 117 115
3 167 4 2
3 86 81 80
3 187 185 183
3 35 161 37
3 88 86 89
3 163 161 35
3 7 9 5
3 145 147 143
3 3 166 2
3 106 107 110
3 45 43 46
3 98 97 96
3 27 30 26
3 138 139 140
3 146 41 42
3 158 159 156
3 81 86 88
3 166 159 165
3 37 38 36
3 53 57 54
3 25 21 164
3 190 196 195
3 101 100 98
3 102 103 105
3 188 187 183
3 0 8 7
3 141 142 143
3 4 8 0
3 191 185 189
3 149 152 143
3 10 9 12
3 41 146 44
3 93 90 91
3 71 69 70
3 159 160 162
3 82 85 84
3 107 124 110
3 133 135 134
3 111 113 115
3 89 127 168
3 24 22 20
3 2 4 0
3 39 37 40
3 116 122 121
3 51 52 50
3 35 32 27
3 86 80 84
3 57 68 54
3 50 38 48
3 20 22 16
3 18 16 15
3 101 104 103
3 148 150 149
3 185 187 189
3 134 136 131
3 17 13 16
3 81 88 90
3 188 184 198
3 6 5 10
3 86 87 89
3 58 56 55
3 66 57 64
3 67 66 64
3 70 67 83
3 191 186 185
3 133 65 135
3 193 191 192
3 88 91 90
3 109 110 112
3 84 129 87
3 15 4 19
3 146 145 144
3 162 163 25
3 21 18 19
3 84 85 129
3 6 201 3
3 89 87 127
3 177 175 198
3 106 110 109
3 55 53 51
3 61 58 142
3 161 163 162
3 92 93 94
3 188 183 184
3 86 84 87
3 122 123 121
3 157 166 3
3 179 181 178
3 25 24 20
3 15 8 4
3 14 13 17
3 169 168 170
3 98 100 97
3 124 123 122
3 180 179 176
3 172 17 23
3 176 14 174
3 168 104 170
3 164 165 159
3 71 68 69
3 177 174 175
3 172 23 171
3 104 123 107
3 93 95 94
3 61 142 141
3 43 44 46
3 115 116 119
3 132 67 65
3 169 91 88
3 197 198 196
3 114 124 122
3 152 154 143
3 56 57 53
3 55 56 53
3 150 40 151
3 64 57 56
3 115 113 116
3 26 24 27
3 40 37 160
3 163 24 25
3 32 30 27
3 135 62 63
3 79 77 75
3 92 81 90
3 116 114 122
3 92 90 93
3 190 197 196
3 1 5 6
3 162 164 159
3 75 77 76
3 23 22 29
3 99 101 98
3 19 167 165
3 69 68 66
3 46 44 59
3 136 63 137
3 72 71 73
3 23 16 22
3 192 189 194
3 63 62 60
3 147 148 143
3 43 38 41
3 66 68 57
3 137 138 131
3 50 48 51
3 48 47 49
3 42 39 150
3 199 182 186
3 2 1 3
3 197 187 188
3 169 99 91
3 77 81 78
3 19 4 167
3 20 16 18
3 110 124 114
3 150 39 40
3 41 38 39
3 60 58 61
3 145 146 147
3 158 160 159
3 49 46 59
3 73 70 83
3 66 67 70
3 149 151 152
3 133 134 131
3 67 64 65
3 189 187 190
3 189 190 194
3 137 63 139
3 184 183 179
3 44 146 144
3 125 126 128
3 60 56 58
3 112 114 113
3 0 1 2
3 103 104 107
3 72 68 71
3 102 101 103
3 171 23 29
3 31 32 33
3 169 89 168
3 12 11 182
3 125 104 126
3 200 12 199
3 174 17 172
3 53 54 52
3 1 6 3
3 197 188 198
3 67 132 83
3 151 158 153
3 137 139 138
3 75 76 74
3 12 182 199
3 136 137 131
3 183 181 179
3 100 101 102
3 72 73 75
3 201 10 200
3 170 99 169
3 174 14 17
3 24 163 27
3 178 182 11
3 165 21 19
3 191 189 192
3 88 89 169
3 81 92 78
3 113 114 116
3 63 60 139
3 17 16 23
3 152 153 154
3 161 160 37
3 75 73 79
3 14 11 13
3 181 186 182
3 47 45 46
3 132 131 82
3 104 101 170
3 20 18 21
3 77 78 76
3 187 197 190
3 119 116 121
3 184 179 180
3 82 131 85
3 25 164 162
3 154 153 155
3 179 178 176
3 180 177 198
3 45 38 43
3 62 56 60
3 132 65 133
3 96 91 99
3 139 61 140
3 178 11 14
3 155 156 157
3 74 72 75
3 51 53 52
3 105 106 108
3 111 109 112

POINT_DATA 202
COLOR_SCALARS GocadColor 4
0.392157 0.584314 0.929412 1
0.392157 0.584314 0.929412 1
0.392157 0.584314 0.929412 1
0.392157 0.584314 0.929412 1
0.392157 0.584314 0.929412 1
0.392157 0.584314 0.929412 1
0.392157 0.584314 0.929412 1
0.392157 0.584314 0.929412 1
0.392157 0.584314 0.929412 1
0.392157 0.584314 0.929412 1
0.392157 0.584314 0.929412 1
0.392157 0.584314 0.929412 1
0.392157 0.584314 0.929412 1
0.392157 0.584314 0.929412 1
0.392157 0.584314 0.929412 1
0.392157 0.584314 0.929412 1
0.392157 0.584314 0.929412 1
0.392157 0.584314 0.929412 1
0.392157 0.584314 0.929412 1
0.392157 0.584314 0.929412 1
0.392157 0.584314 0.929412 1
0.392157 0.584314 0.929412 1
0.392157 0.584314 0.929412 1
0.392157 0.584314 0.929412 1
0.392157 0.584314 0.929412 1
0.392157 0.584314 0.929412 1
0.392157 0.584314 0.929412 1
0.392157 0.584314 0.929412 1
0.392157 0.584314 0.929412 1
0.392157 0.584314 0.929412 1
0.392157 0.584314 0.929412 1
0.392157 0.584314 0.929412 1
0.392157 0.584314 0.929412 1
0.392157 0.584314 0.929412 1
0.392157 0.584314 0.929412 1
0.392157 0.584314 0.929412 1
0.392157 0.584314 0.929412 1
0.392157 0.584314 0.929412 1
0.392157 0.584314 0.929412 1
0.392157 0.584314 0.929412 1
0.392157 0.584314 0.929412 1
0.392157 0.584314 0.929412 1
0.392157 0.584314 0.929412 1
0.392157 0.584314 0.929412 1
0.392157 0.584314 0.929412 1
0.392157 0.584314 0.929412 1
0.392157 0.584314 0.929412 1
0.392157 0.584314 0.929412 1
0.392157 0.584314 0.929412 1
0.392157 0.584314 0.929412 1
0.392157 0.584314 0.929412 1
0.392157 0.584314 0.929412 1
0.392157 0.584314 0.929412 1
0.392157 0.584314 0.929412 1
0.392157 0.584314 0.929412 1
0.392157 0.584314 0.929412 1
0.392157 0.584314 0.929412 1
0.392157 0.584314 0.929412 1
0.392157 0.584314 0.929412 1
0.392157 0.584314 0.929412 1
0.392157 0.584314 0.929412 1
0.392157 0.584314 0.929412 1
0.392157 0.584314 0.929412 1
0.392157 0.584314 0.929412 1
0.392157 0.584314 0.929412 1
0.392157 0.584314 0.929412 1
0.392157 0.584314 0.929412 1
0.392157 0.584314 0.929412 1
0.392157 0.584314 0.929412 1
0.392157 0.584314 0.929412 1
0.392157 0.584314 0.929412 1
0.392157 0.584314 0.929412 1
0.392157 0.584314 0.929412 1
0.392157 0.584314 0.929412 1
0.392157 0.584314 0.929412 1
0.392157 0.584314 0.929412 1
0.392157 0.584314 0.929412 1
0.392157 0.584314 0.929412 1
0.392157 0.584314 0.929412 1
0.392157 0.584314 0.929412 1
0.392157 0.584314 0.929412 1
0.392157 0.584314 0.929412 1
0.392157 0.584314 0.929412 1
0.392157 0.584314 0.929412 1
0.392157 0.584314 0.929412 1
0.392157 0.584314 0.929412 1
0.392157 0.584314 0.929412 1
0.392157 0.584314 0.929412 1
0.392157 0.584314 0.929412 1
0.392157 0.584314 0.929412 1
0.392157 0.584314 0.929412 1
0.392157 0.584314 0.929412 1
0.392157 0.584314 0.929412 1
0.392157 0.584314 0.929412 1
0.392157 0.584314 0.929412 1
0.392157 0.584314 0.929412 1
0.392157 0.584314 0.929412 1
0.392157 0.584314 0.929412 1
0.392157 0.584314 0.929412 1
0.392157 0.584314 0.929412 1
0.392157 0.584314 0.929412 1
0.392157 0.584314 0.929412 1
0.392157 0.584314 0.929412 1
0.392157 0.584314 0.929412 1
0.392157 0.584314 0.929412 1
0.392157 0.584314 0.929412 1
0.392157 0.584314 0.929412 1
0.392157 0.584314 0.929412 1
0.392157 0.584314 0.929412 1
0.392157 0.584314 0.929412 1
0.392157 0.584314 0.929412 1
0.392157 0.584314 0.929412 1
0.392157 0.584314 0.929412 1
0.392157 0.584314 0.929412 1
0.392157 0.584314 0.929412 1
0.392157 0.584314 0.929412 1
0.392157 0.584314 0.929412 1
0.392157 0.584314 0.929412 1
0.392157 0.584314 0.929412 1
0.392157 0.584314 0.929412 1
0.392157 0.584314 0.929412 1
0.392157 0.584314 0.929412 1
0.392157 0.584314 0.929412 1
0.392157 0.584314 0.929412 1
0.392157 0.584314 0.929412 1
0.392157 0.584314 0.929412 1
0.392157 0.584314 0.929412 1
0.392157 0.584314 0.929412 1
0.392157 0.584314 0.929412 1
0.392157 0.584314 0.929412 1
0.392157 0.584314 0.929412 1
0.392157 0.584314 0.929412 1
0.392157 0.584314 0.929412 1
0.392157 0.584314 0.929412 1
0.392157 0.584314 0.929412 1
0.392157 0.584314 0.929412 1
0.392157 0.584314 0.929412 1
0.392157 0.584314 0.929412 1
0.392157 0.584314 0.929412 1
0.392157 0.584314 0.929412 1
0.392157 0.584314 0.929412 1
0.392157 0.584314 0.929412 1
0.392157 0.584314 0.929412 1
0.392157 0.584314 0.929412 1
0.392157 0.584314 0.929412 1
0.392157 0.584314 0.929412 1
0.392157 0.584314 0.929412 1
0.392157 0.584314 0.929412 1
0.392157 0.584314 0.929412 1
0.392157 0.584314 0.929412 1
0.392157 0.584314 0.929412 1
0.392157 0.584314 0.929412 1
0.392157 0.584314 0.929412 1
0.392157 0.584314 0.929412 1
0.392157 0.584314 0.929412 1
0.392157 0.584314 0.929412 1
0.392157 0.584314 0.929412 1
0.392157 0.584314 0.929412 1
0.392157 0.584314 0.929412 1
0.392157 0.584314 0.929412 1
0.392157 0.584314 0.929412 1
0.392157 0.584314 0.929412 1
0.392157 0.584314 0.929412 1
0.392157 0.584314 0.929412 1
0.392157 0.584314 0.929412 1
0.392157 0.584314 0.929412 1
0.392157 0.584314 0.929412 1
0.392157 0.584314 0.929412 1
0.392157 0.584314 0.929412 1
0.392157 0.584314 0.929412 1
0.392157 0.584314 0.929412 1
0.392157 0.584314 0.929412 1
0.392157 0.584314 0.929412 1
0.392157 0.584314 0.929412 1
0.392157 0.584314 0.929412 1
0.392157 0.584314 0.929412 1
0.392157 0.584314 0.929412 1
0.392157 0.584314 0.929412 1
0.392157 0.584314 0.929412 1
0.392157 0.584314 0.929412 1
0.392157 0.584314 0.929412 1
0.392157 0.584314 0.929412 1
0.392157 0.584314 0.929412 1
0.392157 0.584314 0.929412 1
0.392157 0.584314 0.929412 1
0.392157 0.584314 0.929412 1
0.392157 0.584314 0.929412 1
0.392157 0.584314 0.929412 1
0.392157 0.584314 0.929412 1
0.392157 0.584314 0.929412 1
0.392157 0.584314 0.929412 1
0.392157 0.584314 0.929412 1
0.392157 0.584314 0.929412 1
0.392157 0.584314 0.929412 1
0.392157 0.584314 0.929412 1
0.392157 0.584314 0.929412 1
0.392157 0.584314 0.929412 1
0.392157 0.584314 0.929412 1
0.392157 0.584314 0.929412 1
0.392157 0.584314 0.929412 1
0.392157 0.584314 0.929412 1
0.392157 0.584314 0.929412 1

