# vtk DataFile Version 3.0
Gocad TSurf to VTK
ASCII
DATASET POLYDATA
POINTS 88 float
21607800.000 4586280.000 305.000
21607800.000 4586270.000 305.000
21607675.000 4586292.500 316.250
21607675.000 4586082.500 203.750
21607675.000 4586295.000 316.250
21607550.000 4586300.000 327.500
21607550.000 4586165.000 252.500
21607550.000 4586310.000 327.500
21607425.000 4586317.500 338.750
21607550.000 4586065.000 202.500
21607425.000 4586325.000 338.750
21607300.000 4586340.000 350.000
21607175.000 4586302.500 346.250
21607175.000 4586292.500 346.250
21607175.000 4585587.500 -21.250
21607050.000 4586265.000 342.500
21606925.000 4586227.500 338.750
21606800.000 4586190.000 335.000
21606925.000 4585982.500 216.250
21606650.000 4586100.000 331.250
21606650.000 4586092.500 331.250
21606600.000 4585370.000 -35.000
21606500.000 4586010.000 327.500
21606350.000 4585920.000 323.750
21606200.000 4585830.000 320.000
21606500.000 4584470.000 -365.000
21606625.000 4584580.000 -371.250
21606125.000 4585527.500 198.750
21605825.000 4584462.500 -197.500
21606075.000 4585730.000 306.250
21605825.000 4585530.000 278.750
21606075.000 4585730.000 306.250
21605950.000 4585630.000 292.500
21605700.000 4585430.000 265.000
21605550.000 4584905.000 70.000
21605575.000 4585372.500 275.000
21605450.000 4585315.000 285.000
21605575.000 4585372.500 275.000
21605325.000 4585257.500 295.000
21605200.000 4585190.000 305.000
21605200.000 4585200.000 305.000
21605425.000 4584237.500 -137.500
21605250.000 4584485.000 20.000
21604975.000 4585032.500 327.500
21605500.000 4583805.000 -350.000
21605650.000 4583325.000 -592.500
21605450.000 4583712.500 -377.500
21605400.000 4583620.000 -405.000
21605600.000 4582880.000 -810.000
21605675.000 4582917.500 -802.500
21605900.000 4583030.000 -780.000
21605750.000 4582767.500 -873.750
21605800.000 4582855.000 -842.500
21605700.000 4582680.000 -905.000
21605850.000 4582942.500 -811.250
21605750.000 4583845.000 -412.500
21605975.000 4583125.000 -776.250
21606050.000 4583220.000 -772.500
21606125.000 4583315.000 -768.750
21606200.000 4583410.000 -765.000
21606275.000 4583675.000 -665.000
21606425.000 4584205.000 -465.000
21606300.000 4583502.500 -751.250
21606400.000 4583595.000 -737.500
21606500.000 4583687.500 -723.750
21606600.000 4583780.000 -710.000
21606725.000 4583925.000 -700.000
21606800.000 4584415.000 -517.500
21606850.000 4584070.000 -690.000
21606975.000 4584215.000 -680.000
21607100.000 4584360.000 -670.000
21607150.000 4584462.500 -617.500
21607225.000 4584805.000 -442.500
21607200.000 4584565.000 -565.000
21607250.000 4584667.500 -512.500
21607300.000 4584770.000 -460.000
21607425.000 4585027.500 -331.250
21607425.000 4585492.500 -91.250
21607550.000 4585285.000 -202.500
21607675.000 4585542.500 -73.750
21607675.000 4585697.500 6.250
21607675.000 4585932.500 128.750
21607800.000 4585800.000 55.000
21607800.000 4586000.000 155.000
21604900.000 4584980.000 335.000
21604975.000 4585035.000 327.500
21605050.000 4585090.000 320.000
21605125.000 4585145.000 312.500

POLYGONS 120 480
3 68 67 69
3 46 44 45
3 60 59 28
3 77 76 14
3 25 61 28
3 34 28 41
3 81 80 77
3 34 39 38
3 27 25 28
3 47 46 45
3 28 55 41
3 43 87 39
3 39 34 41
3 5 6 9
3 7 4 5
3 17 16 13
3 32 31 29
3 9 77 14
3 34 38 36
3 41 50 45
3 14 13 8
3 0 1 2
3 70 69 67
3 74 73 72
3 49 48 45
3 80 79 77
3 24 20 21
3 25 24 21
3 31 24 29
3 44 42 41
3 60 62 59
3 47 84 42
3 82 80 81
3 35 33 34
3 21 20 18
3 84 43 42
3 18 14 72
3 8 10 7
3 42 43 39
3 76 77 78
3 83 82 81
3 19 20 22
3 32 29 30
3 58 57 55
3 59 55 28
3 8 7 5
3 45 50 49
3 29 27 30
3 19 17 18
3 85 86 43
3 34 27 28
3 37 33 35
3 34 33 27
3 6 5 2
3 66 25 67
3 34 36 35
3 38 39 40
3 20 19 18
3 26 18 72
3 84 85 43
3 3 81 9
3 51 48 49
3 61 64 60
3 72 71 26
3 11 10 8
3 64 63 60
3 54 52 49
3 17 13 18
3 9 81 77
3 24 27 29
3 83 81 3
3 44 41 45
3 50 54 49
3 18 13 14
3 75 74 72
3 1 83 3
3 51 49 52
3 41 42 39
3 24 23 20
3 71 70 26
3 82 79 80
3 68 66 67
3 53 48 51
3 46 47 42
3 79 78 77
3 21 18 26
3 57 56 55
3 76 75 14
3 61 25 65
3 86 87 43
3 70 67 26
3 9 14 8
3 12 11 8
3 61 60 28
3 36 37 35
3 60 63 62
3 3 9 6
3 23 22 20
3 15 12 13
3 75 72 14
3 25 26 67
3 3 6 2
3 55 56 50
3 13 12 8
3 0 2 4
3 87 40 39
3 27 24 25
3 48 47 45
3 8 5 9
3 59 58 55
3 73 71 72
3 61 65 64
3 66 65 25
3 4 2 5
3 16 15 13
3 55 50 41
3 1 3 2
3 44 46 42
3 26 25 21
3 27 33 30

POINT_DATA 88
COLOR_SCALARS GocadColor 4
0.819608 0.698116 0.549615 1
0.819608 0.698116 0.549615 1
0.819608 0.698116 0.549615 1
0.819608 0.698116 0.549615 1
0.819608 0.698116 0.549615 1
0.819608 0.698116 0.549615 1
0.819608 0.698116 0.549615 1
0.819608 0.698116 0.549615 1
0.819608 0.698116 0.549615 1
0.819608 0.698116 0.549615 1
0.819608 0.698116 0.549615 1
0.819608 0.698116 0.549615 1
0.819608 0.698116 0.549615 1
0.819608 0.698116 0.549615 1
0.819608 0.698116 0.549615 1
0.819608 0.698116 0.549615 1
0.819608 0.698116 0.549615 1
0.819608 0.698116 0.549615 1
0.819608 0.698116 0.549615 1
0.819608 0.698116 0.549615 1
0.819608 0.698116 0.549615 1
0.819608 0.698116 0.549615 1
0.819608 0.698116 0.549615 1
0.819608 0.698116 0.549615 1
0.819608 0.698116 0.549615 1
0.819608 0.698116 0.549615 1
0.819608 0.698116 0.549615 1
0.819608 0.698116 0.549615 1
0.819608 0.698116 0.549615 1
0.819608 0.698116 0.549615 1
0.819608 0.698116 0.549615 1
0.819608 0.698116 0.549615 1
0.819608 0.698116 0.549615 1
0.819608 0.698116 0.549615 1
0.819608 0.698116 0.549615 1
0.819608 0.698116 0.549615 1
0.819608 0.698116 0.549615 1
0.819608 0.698116 0.549615 1
0.819608 0.698116 0.549615 1
0.819608 0.698116 0.549615 1
0.819608 0.698116 0.549615 1
0.819608 0.698116 0.549615 1
0.819608 0.698116 0.549615 1
0.819608 0.698116 0.549615 1
0.819608 0.698116 0.549615 1
0.819608 0.698116 0.549615 1
0.819608 0.698116 0.549615 1
0.819608 0.698116 0.549615 1
0.819608 0.698116 0.549615 1
0.819608 0.698116 0.549615 1
0.819608 0.698116 0.549615 1
0.819608 0.698116 0.549615 1
0.819608 0.698116 0.549615 1
0.819608 0.698116 0.549615 1
0.819608 0.698116 0.549615 1
0.819608 0.698116 0.549615 1
0.819608 0.698116 0.549615 1
0.819608 0.698116 0.549615 1
0.819608 0.698116 0.549615 1
0.819608 0.698116 0.549615 1
0.819608 0.698116 0.549615 1
0.819608 0.698116 0.549615 1
0.819608 0.698116 0.549615 1
0.819608 0.698116 0.549615 1
0.819608 0.698116 0.549615 1
0.819608 0.698116 0.549615 1
0.819608 0.698116 0.549615 1
0.819608 0.698116 0.549615 1
0.819608 0.698116 0.549615 1
0.819608 0.698116 0.549615 1
0.819608 0.698116 0.549615 1
0.819608 0.698116 0.549615 1
0.819608 0.698116 0.549615 1
0.819608 0.698116 0.549615 1
0.819608 0.698116 0.549615 1
0.819608 0.698116 0.549615 1
0.819608 0.698116 0.549615 1
0.819608 0.698116 0.549615 1
0.819608 0.698116 0.549615 1
0.819608 0.698116 0.549615 1
0.819608 0.698116 0.549615 1
0.819608 0.698116 0.549615 1
0.819608 0.698116 0.549615 1
0.819608 0.698116 0.549615 1
0.819608 0.698116 0.549615 1
0.819608 0.698116 0.549615 1
0.819608 0.698116 0.549615 1
0.819608 0.698116 0.549615 1

