# vtk DataFile Version 3.0
Gocad TSurf to VTK
ASCII
DATASET POLYDATA
POINTS 764 float
21572000.000 4580047.500 -445.000
21571775.000 4579770.000 -632.500
21571900.000 4580035.000 -480.000
21571750.000 4579850.000 -605.000
21572000.000 4580120.000 -375.000
21571800.000 4579690.000 -660.000
21572100.000 4580060.000 -410.000
21571725.000 4579702.500 -673.750
21571650.000 4579715.000 -687.500
21571500.000 4579425.000 -861.250
21571500.000 4579530.000 -812.500
21571500.000 4579320.000 -910.000
21571425.000 4579320.000 -906.250
21571925.000 4579300.000 -861.250
21572150.000 4579577.500 -673.750
21571625.000 4578977.500 -932.500
21572150.000 4579065.000 -860.000
21571100.000 4578890.000 -1005.000
21571475.000 4578775.000 -868.750
21571125.000 4578997.500 -977.500
21571050.000 4578910.000 -991.250
21571150.000 4579105.000 -950.000
21571000.000 4578930.000 -977.500
21571350.000 4579320.000 -902.500
21571175.000 4579212.500 -922.500
21571275.000 4579320.000 -898.750
21571500.000 4579635.000 -763.750
21571200.000 4579320.000 -895.000
21570900.000 4578970.000 -950.000
21570950.000 4578950.000 -963.750
21570800.000 4579132.500 -918.750
21570725.000 4579070.000 -928.750
21571025.000 4579395.000 -877.500
21570700.000 4579295.000 -887.500
21571100.000 4579472.500 -867.500
21571000.000 4579625.000 -840.000
21571500.000 4579740.000 -715.000
21571325.000 4579787.500 -732.500
21571400.000 4579877.500 -670.000
21571300.000 4580015.000 -625.000
21571700.000 4580010.000 -550.000
21571725.000 4579930.000 -577.500
21571550.000 4580080.000 -546.250
21571600.000 4580140.000 -501.250
21571400.000 4580150.000 -542.500
21571750.000 4580267.500 -343.750
21571600.000 4580355.000 -347.500
21571900.000 4580180.000 -340.000
21571800.000 4580022.500 -515.000
21571825.000 4580330.000 -326.250
21571750.000 4580480.000 -312.500
21572125.000 4580735.000 -172.500
21571950.000 4580750.000 -210.000
21572300.000 4580720.000 -135.000
21572000.000 4580240.000 -316.250
21572225.000 4580857.500 -125.000
21572150.000 4580995.000 -115.000
21572500.000 4580970.000 15.000
21572375.000 4580735.000 -127.500
21572375.000 4581045.000 -12.500
21572450.000 4581110.000 36.250
21572250.000 4581120.000 -40.000
21572800.000 4581270.000 70.000
21572575.000 4580990.000 -1.250
21572675.000 4581335.000 77.500
21572400.000 4581250.000 57.500
21572775.000 4581437.500 87.500
21572550.000 4581400.000 85.000
21573200.000 4581840.000 115.000
21572925.000 4581345.000 46.250
21573075.000 4581865.000 121.250
21572750.000 4581605.000 105.000
21573200.000 4581992.500 125.000
21572950.000 4581890.000 127.500
21573500.000 4582180.000 170.000
21573300.000 4581887.500 115.000
21573425.000 4582247.500 166.250
21573200.000 4582145.000 135.000
21573350.000 4582315.000 162.500
21573200.000 4582297.500 145.000
21572825.000 4581915.000 133.750
21573275.000 4582382.500 158.750
21573200.000 4582450.000 155.000
21572700.000 4581940.000 140.000
21572975.000 4582495.000 165.000
21572725.000 4581772.500 122.500
21572300.000 4581530.000 100.000
21572425.000 4581465.000 92.500
21572350.000 4581390.000 78.750
21572000.000 4581270.000 -95.000
21572125.000 4581195.000 -67.500
21571925.000 4581452.500 -73.750
21571875.000 4581402.500 -83.750
21572150.000 4581647.500 72.500
21571850.000 4581635.000 -52.500
21572250.000 4581750.000 96.250
21572000.000 4581765.000 45.000
21572550.000 4582057.500 126.250
21572200.000 4581970.000 92.500
21572600.000 4582112.500 153.750
21572400.000 4582175.000 112.500
21572750.000 4582540.000 175.000
21572500.000 4582285.000 167.500
21572950.000 4582725.000 147.500
21573075.000 4582587.500 151.250
21572825.000 4582862.500 143.750
21572525.000 4582585.000 185.000
21572700.000 4583000.000 140.000
21572300.000 4582630.000 195.000
21572550.000 4583032.500 147.500
21572400.000 4582457.500 181.250
21572100.000 4582410.000 85.000
21572250.000 4582292.500 98.750
21572075.000 4582550.000 67.500
21572000.000 4582475.000 61.250
21572225.000 4582715.000 150.000
21572050.000 4582690.000 50.000
21572250.000 4582755.000 188.750
21572150.000 4582800.000 105.000
21572400.000 4583065.000 155.000
21572200.000 4582880.000 182.500
21572550.000 4583205.000 155.000
21572475.000 4583307.500 162.500
21572625.000 4583102.500 147.500
21572250.000 4583097.500 162.500
21572400.000 4583410.000 170.000
21572150.000 4583005.000 176.250
21572075.000 4582885.000 60.000
21572100.000 4583130.000 170.000
21572000.000 4582970.000 15.000
21572075.000 4583252.500 142.500
21572000.000 4583155.000 131.250
21572300.000 4583462.500 142.500
21572050.000 4583375.000 115.000
21572350.000 4583500.000 156.250
21572300.000 4583590.000 142.500
21572200.000 4583515.000 115.000
21572250.000 4583680.000 128.750
21572025.000 4583497.500 87.500
21571800.000 4583205.000 53.750
21572100.000 4583567.500 87.500
21572000.000 4583620.000 60.000
21572200.000 4583770.000 115.000
21572050.000 4583832.500 72.500
21571900.000 4583720.000 31.250
21572150.000 4583947.500 92.500
21571900.000 4583895.000 30.000
21572100.000 4584125.000 70.000
21571750.000 4583957.500 -12.500
21571800.000 4583820.000 2.500
21572050.000 4584302.500 47.500
21571600.000 4584020.000 -55.000
21571700.000 4583920.000 -26.250
21572000.000 4584480.000 25.000
21571800.000 4584477.500 -80.000
21571500.000 4584132.500 -140.000
21571925.000 4584630.000 -28.750
21571850.000 4584780.000 -82.500
21571600.000 4584475.000 -185.000
21571775.000 4584930.000 -136.250
21571400.000 4584245.000 -225.000
21571375.000 4584012.500 -161.250
21571400.000 4584472.500 -290.000
21571300.000 4584357.500 -310.000
21571700.000 4585080.000 -190.000
21571200.000 4584470.000 -395.000
21570925.000 4583997.500 -373.750
21570700.000 4583990.000 -480.000
21571150.000 4584005.000 -267.500
21570950.000 4583730.000 -302.500
21571075.000 4583600.000 -213.750
21570825.000 4583860.000 -391.250
21570775.000 4583782.500 -436.250
21570200.000 4583410.000 -620.000
21570400.000 4583347.500 -541.250
21570325.000 4583257.500 -575.000
21570850.000 4583575.000 -392.500
21570600.000 4583285.000 -462.500
21570450.000 4583105.000 -530.000
21570925.000 4583367.500 -348.750
21570800.000 4583222.500 -383.750
21570575.000 4582952.500 -485.000
21571000.000 4583160.000 -305.000
21570700.000 4582800.000 -440.000
21571200.000 4583470.000 -125.000
21571250.000 4583332.500 -100.000
21571625.000 4583822.500 -37.500
21571325.000 4583410.000 -90.000
21571650.000 4583625.000 -20.000
21571450.000 4583350.000 -55.000
21571675.000 4583427.500 -2.500
21571575.000 4583290.000 -20.000
21571300.000 4583195.000 -75.000
21571700.000 4583230.000 15.000
21571350.000 4583057.500 -50.000
21571775.000 4583165.000 15.000
21571700.000 4583090.000 8.750
21571850.000 4583100.000 15.000
21571900.000 4583180.000 92.500
21571925.000 4583035.000 15.000
21571700.000 4582810.000 -3.750
21571700.000 4582670.000 -10.000
21571700.000 4582950.000 2.500
21571550.000 4582795.000 -17.500
21571475.000 4582857.500 -21.250
21571400.000 4582920.000 -25.000
21571450.000 4582715.000 -57.500
21571325.000 4582737.500 -81.250
21571575.000 4582692.500 -33.750
21571625.000 4582732.500 -13.750
21571350.000 4582482.500 -75.000
21571400.000 4582390.000 -65.000
21571300.000 4582575.000 -85.000
21571250.000 4582495.000 -120.000
21571250.000 4582667.500 -95.000
21571175.000 4582547.500 -147.500
21571200.000 4582760.000 -105.000
21571100.000 4582600.000 -175.000
21571300.000 4582980.000 -95.000
21571150.000 4582860.000 -155.000
21571200.000 4583040.000 -165.000
21571100.000 4583100.000 -235.000
21571100.000 4582960.000 -205.000
21571050.000 4583060.000 -255.000
21571025.000 4583020.000 -272.500
21571050.000 4582880.000 -240.000
21570800.000 4582750.000 -373.750
21570900.000 4582700.000 -307.500
21570725.000 4582672.500 -391.250
21571075.000 4582740.000 -207.500
21571000.000 4582650.000 -241.250
21570750.000 4582545.000 -342.500
21570775.000 4582417.500 -293.750
21570800.000 4582290.000 -245.000
21570675.000 4582297.500 -327.500
21570550.000 4582305.000 -410.000
21570400.000 4581830.000 -285.000
21570525.000 4581830.000 -251.250
21570375.000 4581952.500 -357.500
21570225.000 4581772.500 -343.750
21570350.000 4582075.000 -430.000
21570425.000 4582312.500 -492.500
21570325.000 4582197.500 -502.500
21570300.000 4582320.000 -575.000
21570275.000 4582592.500 -586.250
21569875.000 4581657.500 -461.250
21569700.000 4581600.000 -520.000
21570050.000 4581715.000 -402.500
21569900.000 4581575.000 -417.500
21570000.000 4581562.500 -366.250
21569800.000 4581587.500 -468.750
21569750.000 4581405.000 -507.500
21569725.000 4581502.500 -513.750
21569425.000 4581120.000 -412.500
21569550.000 4581150.000 -440.000
21569675.000 4581180.000 -467.500
21569775.000 4581307.500 -501.250
21569525.000 4581000.000 -497.500
21569600.000 4580970.000 -535.000
21569450.000 4581030.000 -460.000
21569300.000 4580900.000 -405.000
21569375.000 4581060.000 -422.500
21569300.000 4580995.000 -395.000
21569300.000 4581090.000 -385.000
21569250.000 4581372.500 -463.750
21569100.000 4581187.500 -446.250
21569550.000 4581755.000 -565.000
21569200.000 4581655.000 -542.500
21569675.000 4581892.500 -565.000
21569400.000 4581910.000 -610.000
21570125.000 4582432.500 -606.250
21569650.000 4582185.000 -610.000
21569950.000 4582545.000 -637.500
21570250.000 4582865.000 -597.500
21569775.000 4582657.500 -668.750
21570225.000 4583137.500 -608.750
21569600.000 4582770.000 -700.000
21569625.000 4582477.500 -655.000
21569100.000 4582220.000 -700.000
21569250.000 4582065.000 -655.000
21569150.000 4581937.500 -621.250
21568500.000 4581480.000 -630.000
21568700.000 4581382.500 -568.750
21568625.000 4581277.500 -541.250
21568900.000 4581285.000 -507.500
21568750.000 4581075.000 -452.500
21568875.000 4580872.500 -363.750
21568550.000 4580885.000 -420.000
21568325.000 4580992.500 -492.500
21568775.000 4580777.500 -347.500
21568700.000 4580687.500 -291.250
21568400.000 4580705.000 -307.500
21569000.000 4580670.000 -275.000
21568400.000 4579880.000 -265.000
21569075.000 4580680.000 -312.500
21569025.000 4580602.500 -281.250
[...]
POINT_DATA 764
COLOR_SCALARS GocadColor 4
0.0930037 0.0930037 0.439216 1
0.0930037 0.0930037 0.439216 1
0.0930037 0.0930037 0.439216 1
0.0930037 0.0930037 0.439216 1
0.0930037 0.0930037 0.439216 1
0.0930037 0.0930037 0.439216 1
0.0930037 0.0930037 0.439216 1
0.0930037 0.0930037 0.439216 1
0.0930037 0.0930037 0.439216 1
0.0930037 0.0930037 0.439216 1
0.0930037 0.0930037 0.439216 1
0.0930037 0.0930037 0.439216 1
0.0930037 0.0930037 0.439216 1
0.0930037 0.0930037 0.439216 1
0.0930037 0.0930037 0.439216 1
0.0930037 0.0930037 0.439216 1
0.0930037 0.0930037 0.439216 1
0.0930037 0.0930037 0.439216 1
0.0930037 0.0930037 0.439216 1
0.0930037 0.0930037 0.439216 1
0.0930037 0.0930037 0.439216 1
0.0930037 0.0930037 0.439216 1
0.0930037 0.0930037 0.439216 1
0.0930037 0.0930037 0.439216 1
0.0930037 0.0930037 0.439216 1
0.0930037 0.0930037 0.439216 1
0.0930037 0.0930037 0.439216 1
0.0930037 0.0930037 0.439216 1
0.0930037 0.0930037 0.439216 1
0.0930037 0.0930037 0.439216 1
0.0930037 0.0930037 0.439216 1
0.0930037 0.0930037 0.439216 1
0.0930037 0.0930037 0.439216 1
0.0930037 0.0930037 0.439216 1
0.0930037 0.0930037 0.439216 1
0.0930037 0.0930037 0.439216 1
0.0930037 0.0930037 0.439216 1
0.0930037 0.0930037 0.439216 1
0.0930037 0.0930037 0.439216 1
0.0930037 0.0930037 0.439216 1
0.0930037 0.0930037 0.439216 1
0.0930037 0.0930037 0.439216 1
0.0930037 0.0930037 0.439216 1
0.0930037 0.0930037 0.439216 1
0.0930037 0.0930037 0.439216 1
0.0930037 0.0930037 0.439216 1
0.0930037 0.0930037 0.439216 1
0.0930037 0.0930037 0.439216 1
0.0930037 0.0930037 0.439216 1
0.0930037 0.0930037 0.439216 1
0.0930037 0.0930037 0.439216 1
0.0930037 0.0930037 0.439216 1
0.0930037 0.0930037 0.439216 1
0.0930037 0.0930037 0.439216 1
0.0930037 0.0930037 0.439216 1
0.0930037 0.0930037 0.439216 1
0.0930037 0.0930037 0.439216 1
0.0930037 0.0930037 0.439216 1
0.0930037 0.0930037 0.439216 1
0.0930037 0.0930037 0.439216 1
0.0930037 0.0930037 0.439216 1
0.0930037 0.0930037 0.439216 1
0.0930037 0.0930037 0.439216 1
0.0930037 0.0930037 0.439216 1
0.0930037 0.0930037 0.439216 1
0.0930037 0.0930037 0.439216 1
0.0930037 0.0930037 0.439216 1
0.0930037 0.0930037 0.439216 1
0.0930037 0.0930037 0.439216 1
0.0930037 0.0930037 0.439216 1
0.0930037 0.0930037 0.439216 1
0.0930037 0.0930037 0.439216 1
0.0930037 0.0930037 0.439216 1
0.0930037 0.0930037 0.439216 1
0.0930037 0.0930037 0.439216 1
0.0930037 0.0930037 0.439216 1
0.0930037 0.0930037 0.439216 1
0.0930037 0.0930037 0.439216 1
0.0930037 0.0930037 0.439216 1
0.0930037 0.0930037 0.439216 1
0.0930037 0.0930037 0.439216 1
0.0930037 0.0930037 0.439216 1
0.0930037 0.0930037 0.439216 1
0.0930037 0.0930037 0.439216 1
0.0930037 0.0930037 0.439216 1
0.0930037 0.0930037 0.439216 1
0.0930037 0.0930037 0.439216 1
0.0930037 0.0930037 0.439216 1
0.0930037 0.0930037 0.439216 1
0.0930037 0.0930037 0.439216 1
0.0930037 0.0930037 0.439216 1
0.0930037 0.0930037 0.439216 1
0.0930037 0.0930037 0.439216 1
0.0930037 0.0930037 0.439216 1
0.0930037 0.0930037 0.439216 1
0.0930037 0.0930037 0.439216 1
0.0930037 0.0930037 0.439216 1
0.0930037 0.0930037 0.439216 1
0.0930037 0.0930037 0.439216 1
0.0930037 0.0930037 0.439216 1
0.0930037 0.0930037 0.439216 1
0.0930037 0.0930037 0.439216 1
0.0930037 0.0930037 0.439216 1
0.0930037 0.0930037 0.439216 1
0.0930037 0.0930037 0.439216 1
0.0930037 0.0930037 0.439216 1
0.0930037 0.0930037 0.439216 1
0.0930037 0.0930037 0.439216 1
0.0930037 0.0930037 0.439216 1
0.0930037 0.0930037 0.439216 1
0.0930037 0.0930037 0.439216 1
0.0930037 0.0930037 0.439216 1
0.0930037 0.0930037 0.439216 1
0.0930037 0.0930037 0.439216 1
0.0930037 0.0930037 0.439216 1
0.0930037 0.0930037 0.439216 1
0.0930037 0.0930037 0.439216 1
0.0930037 0.0930037 0.439216 1
0.0930037 0.0930037 0.439216 1
0.0930037 0.0930037 0.439216 1
0.0930037 0.0930037 0.439216 1
0.0930037 0.0930037 0.439216 1
0.0930037 0.0930037 0.439216 1
0.0930037 0.0930037 0.439216 1
0.0930037 0.0930037 0.439216 1
0.0930037 0.0930037 0.439216 1
0.0930037 0.0930037 0.439216 1
0.0930037 0.0930037 0.439216 1
0.0930037 0.0930037 0.439216 1
0.0930037 0.0930037 0.439216 1
0.0930037 0.0930037 0.439216 1
0.0930037 0.0930037 0.439216 1
0.0930037 0.0930037 0.439216 1
0.0930037 0.0930037 0.439216 1
0.0930037 0.0930037 0.439216 1
0.0930037 0.0930037 0.439216 1
0.0930037 0.0930037 0.439216 1
0.0930037 0.0930037 0.439216 1
0.0930037 0.0930037 0.439216 1
0.0930037 0.0930037 0.439216 1
0.0930037 0.0930037 0.439216 1
0.0930037 0.0930037 0.439216 1
0.0930037 0.0930037 0.439216 1
0.0930037 0.0930037 0.439216 1
0.0930037 0.0930037 0.439216 1
0.0930037 0.0930037 0.439216 1
0.0930037 0.0930037 0.439216 1
0.0930037 0.0930037 0.439216 1
0.0930037 0.0930037 0.439216 1
0.0930037 0.0930037 0.439216 1
0.0930037 0.0930037 0.439216 1
0.0930037 0.0930037 0.439216 1
0.0930037 0.0930037 0.439216 1
0.0930037 0.0930037 0.439216 1
0.0930037 0.0930037 0.439216 1
0.0930037 0.0930037 0.439216 1
0.0930037 0.0930037 0.439216 1
0.0930037 0.0930037 0.439216 1
0.0930037 0.0930037 0.439216 1
0.0930037 0.0930037 0.439216 1
0.0930037 0.0930037 0.439216 1
0.0930037 0.0930037 0.439216 1
0.0930037 0.0930037 0.439216 1
0.0930037 0.0930037 0.439216 1
0.0930037 0.0930037 0.439216 1
0.0930037 0.0930037 0.439216 1
0.0930037 0.0930037 0.439216 1
0.0930037 0.0930037 0.439216 1
0.0930037 0.0930037 0.439216 1
0.0930037 0.0930037 0.439216 1
0.0930037 0.0930037 0.439216 1
0.0930037 0.0930037 0.439216 1
0.0930037 0.0930037 0.439216 1
0.0930037 0.0930037 0.439216 1
0.0930037 0.0930037 0.439216 1
0.0930037 0.0930037 0.439216 1
0.0930037 0.0930037 0.439216 1
0.0930037 0.0930037 0.439216 1
0.0930037 0.0930037 0.439216 1
0.0930037 0.0930037 0.439216 1
0.0930037 0.0930037 0.439216 1
0.0930037 0.0930037 0.439216 1
0.0930037 0.0930037 0.439216 1
0.0930037 0.0930037 0.439216 1
0.0930037 0.0930037 0.439216 1
0.0930037 0.0930037 0.439216 1
0.0930037 0.0930037 0.439216 1
0.0930037 0.0930037 0.439216 1
0.0930037 0.0930037 0.439216 1
0.0930037 0.0930037 0.439216 1
0.0930037 0.0930037 0.439216 1
0.0930037 0.0930037 0.439216 1
0.0930037 0.0930037 0.439216 1
0.0930037 0.0930037 0.439216 1
0.0930037 0.0930037 0.439216 1
0.0930037 0.0930037 0.439216 1
0.0930037 0.0930037 0.439216 1
0.0930037 0.0930037 0.439216 1
0.0930037 0.0930037 0.439216 1
0.0930037 0.0930037 0.439216 1
0.0930037 0.0930037 0.439216 1
0.0930037 0.0930037 0.439216 1
0.0930037 0.0930037 0.439216 1
0.0930037 0.0930037 0.439216 1
0.0930037 0.0930037 0.439216 1
0.0930037 0.0930037 0.439216 1
0.0930037 0.0930037 0.439216 1
0.0930037 0.0930037 0.439216 1
0.0930037 0.0930037 0.439216 1
0.0930037 0.0930037 0.439216 1
0.0930037 0.0930037 0.439216 1
0.0930037 0.0930037 0.439216 1
0.0930037 0.0930037 0.439216 1
0.0930037 0.0930037 0.439216 1
0.0930037 0.0930037 0.439216 1
0.0930037 0.0930037 0.439216 1
0.0930037 0.0930037 0.439216 1
0.0930037 0.0930037 0.439216 1
0.0930037 0.0930037 0.439216 1
0.0930037 0.0930037 0.439216 1
0.0930037 0.0930037 0.439216 1
0.0930037 0.0930037 0.439216 1
0.0930037 0.0930037 0.439216 1
0.0930037 0.0930037 0.439216 1
0.0930037 0.0930037 0.439216 1
0.0930037 0.0930037 0.439216 1
0.0930037 0.0930037 0.439216 1
0.0930037 0.0930037 0.439216 1
0.0930037 0.0930037 0.439216 1
0.0930037 0.0930037 0.439216 1
0.0930037 0.0930037 0.439216 1
0.0930037 0.0930037 0.439216 1
0.0930037 0.0930037 0.439216 1
0.0930037 0.0930037 0.439216 1
0.0930037 0.0930037 0.439216 1
0.0930037 0.0930037 0.439216 1
0.0930037 0.0930037 0.439216 1
0.0930037 0.0930037 0.439216 1
0.0930037 0.0930037 0.439216 1
0.0930037 0.0930037 0.439216 1
0.0930037 0.0930037 0.439216 1
0.0930037 0.0930037 0.439216 1
0.0930037 0.0930037 0.439216 1
0.0930037 0.0930037 0.439216 1
0.0930037 0.0930037 0.439216 1
0.0930037 0.0930037 0.439216 1
0.0930037 0.0930037 0.439216 1
0.0930037 0.0930037 0.439216 1
0.0930037 0.0930037 0.439216 1
0.0930037 0.0930037 0.439216 1
0.0930037 0.0930037 0.439216 1
0.0930037 0.0930037 0.439216 1
0.0930037 0.0930037 0.439216 1
0.0930037 0.0930037 0.439216 1
0.0930037 0.0930037 0.439216 1
0.0930037 0.0930037 0.439216 1
0.0930037 0.0930037 0.439216 1
0.0930037 0.0930037 0.439216 1
0.0930037 0.0930037 0.439216 1
0.0930037 0.0930037 0.439216 1
0.0930037 0.0930037 0.439216 1
0.0930037 0.0930037 0.439216 1
0.0930037 0.0930037 0.439216 1
0.0930037 0.0930037 0.439216 1
0.0930037 0.0930037 0.439216 1
0.0930037 0.0930037 0.439216 1
0.0930037 0.0930037 0.439216 1
0.0930037 0.0930037 0.439216 1
0.0930037 0.0930037 0.439216 1
0.0930037 0.0930037 0.439216 1
0.0930037 0.0930037 0.439216 1
0.0930037 0.0930037 0.439216 1
0.0930037 0.0930037 0.439216 1
0.0930037 0.0930037 0.439216 1
0.0930037 0.0930037 0.439216 1
0.0930037 0.0930037 0.439216 1
0.0930037 0.0930037 0.439216 1
0.0930037 0.0930037 0.439216 1
0.0930037 0.0930037 0.439216 1
0.0930037 0.0930037 0.439216 1
0.0930037 0.0930037 0.439216 1
0.0930037 0.0930037 0.439216 1
0.0930037 0.0930037 0.439216 1
0.0930037 0.0930037 0.439216 1
0.0930037 0.0930037 0.439216 1
0.0930037 0.0930037 0.439216 1
0.0930037 0.0930037 0.439216 1
0.0930037 0.0930037 0.439216 1
0.0930037 0.0930037 0.439216 1
0.0930037 0.0930037 0.439216 1
0.0930037 0.0930037 0.439216 1
0.0930037 0.0930037 0.439216 1
0.0930037 0.0930037 0.439216 1
0.0930037 0.0930037 0.439216 1
0.0930037 0.0930037 0.439216 1
0.0930037 0.0930037 0.439216 1
0.0930037 0.0930037 0.439216 1
0.0930037 0.0930037 0.439216 1
0.0930037 0.0930037 0.439216 1
0.0930037 0.0930037 0.439216 1
0.0930037 0.0930037 0.439216 1
0.0930037 0.0930037 0.439216 1
0.0930037 0.0930037 0.439216 1
0.0930037 0.0930037 0.439216 1
0.0930037 0.0930037 0.439216 1
0.0930037 0.0930037 0.439216 1
0.0930037 0.0930037 0.439216 1
0.0930037 0.0930037 0.439216 1
0.0930037 0.0930037 0.439216 1
0.0930037 0.0930037 0.439216 1
0.0930037 0.0930037 0.439216 1
0.0930037 0.0930037 0.439216 1
0.0930037 0.0930037 0.439216 1
0.0930037 0.0930037 0.439216 1
0.0930037 0.0930037 0.439216 1
0.0930037 0.0930037 0.439216 1
0.0930037 0.0930037 0.439216 1
0.0930037 0.0930037 0.439216 1
0.0930037 0.0930037 0.439216 1
0.0930037 0.0930037 0.439216 1
0.0930037 0.0930037 0.439216 1
0.0930037 0.0930037 0.439216 1
0.0930037 0.0930037 0.439216 1
0.0930037 0.0930037 0.439216 1
0.0930037 0.0930037 0.439216 1
0.0930037 0.0930037 0.439216 1
0.0930037 0.0930037 0.439216 1
0.0930037 0.0930037 0.439216 1
0.0930037 0.0930037 0.439216 1
0.0930037 0.0930037 0.439216 1
0.0930037 0.0930037 0.439216 1
0.0930037 0.0930037 0.439216 1
0.0930037 0.0930037 0.439216 1
0.0930037 0.0930037 0.439216 1
0.0930037 0.0930037 0.439216 1
0.0930037 0.0930037 0.439216 1
0.0930037 0.0930037 0.439216 1
0.0930037 0.0930037 0.439216 1
0.0930037 0.0930037 0.439216 1
0.0930037 0.0930037 0.439216 1
0.0930037 0.0930037 0.439216 1
0.0930037 0.0930037 0.439216 1
0.0930037 0.0930037 0.439216 1
0.0930037 0.0930037 0.439216 1
0.0930037 0.0930037 0.439216 1
0.0930037 0.0930037 0.439216 1
0.0930037 0.0930037 0.439216 1
0.0930037 0.0930037 0.439216 1
0.0930037 0.0930037 0.439216 1
0.0930037 0.0930037 0.439216 1
0.0930037 0.0930037 0.439216 1
0.0930037 0.0930037 0.439216 1
0.0930037 0.0930037 0.439216 1
0.0930037 0.0930037 0.439216 1
0.0930037 0.0930037 0.439216 1
0.0930037 0.0930037 0.439216 1
0.0930037 0.0930037 0.439216 1
0.0930037 0.0930037 0.439216 1
0.0930037 0.0930037 0.439216 1
0.0930037 0.0930037 0.439216 1
0.0930037 0.0930037 0.439216 1
0.0930037 0.0930037 0.439216 1
0.0930037 0.0930037 0.439216 1
0.0930037 0.0930037 0.439216 1
0.0930037 0.0930037 0.439216 1
0.0930037 0.0930037 0.439216 1
0.0930037 0.0930037 0.439216 1
0.0930037 0.0930037 0.439216 1
0.0930037 0.0930037 0.439216 1
0.0930037 0.0930037 0.439216 1
0.0930037 0.0930037 0.439216 1
0.0930037 0.0930037 0.439216 1
0.0930037 0.0930037 0.439216 1
0.0930037 0.0930037 0.439216 1
0.0930037 0.0930037 0.439216 1
0.0930037 0.0930037 0.439216 1
0.0930037 0.0930037 0.439216 1
0.0930037 0.0930037 0.439216 1
0.0930037 0.0930037 0.439216 1
0.0930037 0.0930037 0.439216 1
0.0930037 0.0930037 0.439216 1
0.0930037 0.0930037 0.439216 1
0.0930037 0.0930037 0.439216 1
0.0930037 0.0930037 0.439216 1
0.0930037 0.0930037 0.439216 1
0.0930037 0.0930037 0.439216 1
0.0930037 0.0930037 0.439216 1
0.0930037 0.0930037 0.439216 1
0.0930037 0.0930037 0.439216 1
0.0930037 0.0930037 0.439216 1
0.0930037 0.0930037 0.439216 1
0.0930037 0.0930037 0.439216 1
0.0930037 0.0930037 0.439216 1
0.0930037 0.0930037 0.439216 1
0.0930037 0.0930037 0.439216 1
0.0930037 0.0930037 0.439216 1
0.0930037 0.0930037 0.439216 1
0.0930037 0.0930037 0.439216 1
0.0930037 0.0930037 0.439216 1
0.0930037 0.0930037 0.439216 1
0.0930037 0.0930037 0.439216 1
0.0930037 0.0930037 0.439216 1
0.0930037 0.0930037 0.439216 1
0.0930037 0.0930037 0.439216 1
0.0930037 0.0930037 0.439216 1
0.0930037 0.0930037 0.439216 1
0.0930037 0.0930037 0.439216 1
0.0930037 0.0930037 0.439216 1
0.0930037 0.0930037 0.439216 1
0.0930037 0.0930037 0.439216 1
0.0930037 0.0930037 0.439216 1
0.0930037 0.0930037 0.439216 1
0.0930037 0.0930037 0.439216 1
0.0930037 0.0930037 0.439216 1
0.0930037 0.0930037 0.439216 1
0.0930037 0.0930037 0.439216 1
0.0930037 0.0930037 0.439216 1
0.0930037 0.0930037 0.439216 1
0.0930037 0.0930037 0.439216 1
0.0930037 0.0930037 0.439216 1
0.0930037 0.0930037 0.439216 1
0.0930037 0.0930037 0.439216 1
0.0930037 0.0930037 0.439216 1
0.0930037 0.0930037 0.439216 1
0.0930037 0.0930037 0.439216 1
0.0930037 0.0930037 0.439216 1
0.0930037 0.0930037 0.439216 1
0.0930037 0.0930037 0.439216 1
0.0930037 0.0930037 0.439216 1
0.0930037 0.0930037 0.439216 1
0.0930037 0.0930037 0.439216 1
0.0930037 0.0930037 0.439216 1
0.0930037 0.0930037 0.439216 1
0.0930037 0.0930037 0.439216 1
0.0930037 0.0930037 0.439216 1
0.0930037 0.0930037 0.439216 1
0.0930037 0.0930037 0.439216 1
0.0930037 0.0930037 0.439216 1
0.0930037 0.0930037 0.439216 1
0.0930037 0.0930037 0.439216 1
0.0930037 0.0930037 0.439216 1
0.0930037 0.0930037 0.439216 1
0.0930037 0.0930037 0.439216 1
0.0930037 0.0930037 0.439216 1
0.0930037 0.0930037 0.439216 1
0.0930037 0.0930037 0.439216 1
0.0930037 0.0930037 0.439216 1
0.0930037 0.0930037 0.439216 1
0.0930037 0.0930037 0.439216 1
0.0930037 0.0930037 0.439216 1
0.0930037 0.0930037 0.439216 1
0.0930037 0.0930037 0.439216 1
0.0930037 0.0930037 0.439216 1
0.0930037 0.0930037 0.439216 1
0.0930037 0.0930037 0.439216 1
0.0930037 0.0930037 0.439216 1
0.0930037 0.0930037 0.439216 1
0.0930037 0.0930037 0.439216 1
0.0930037 0.0930037 0.439216 1
0.0930037 0.0930037 0.439216 1
0.0930037 0.0930037 0.439216 1
0.0930037 0.0930037 0.439216 1
0.0930037 0.0930037 0.439216 1
0.0930037 0.0930037 0.439216 1
0.0930037 0.0930037 0.439216 1
0.0930037 0.0930037 0.439216 1
0.0930037 0.0930037 0.439216 1
0.0930037 0.0930037 0.439216 1
0.0930037 0.0930037 0.439216 1
0.0930037 0.0930037 0.439216 1
0.0930037 0.0930037 0.439216 1
0.0930037 0.0930037 0.439216 1
0.0930037 0.0930037 0.439216 1
0.0930037 0.0930037 0.439216 1
0.0930037 0.0930037 0.439216 1
0.0930037 0.0930037 0.439216 1
0.0930037 0.0930037 0.439216 1
0.0930037 0.0930037 0.439216 1
0.0930037 0.0930037 0.439216 1
0.0930037 0.0930037 0.439216 1
0.0930037 0.0930037 0.439216 1
0.0930037 0.0930037 0.439216 1
0.0930037 0.0930037 0.439216 1
0.0930037 0.0930037 0.439216 1
0.0930037 0.0930037 0.439216 1
0.0930037 0.0930037 0.439216 1
0.0930037 0.0930037 0.439216 1
0.0930037 0.0930037 0.439216 1
0.0930037 0.0930037 0.439216 1
0.0930037 0.0930037 0.439216 1
0.0930037 0.0930037 0.439216 1
0.0930037 0.0930037 0.439216 1
0.0930037 0.0930037 0.439216 1
0.0930037 0.0930037 0.439216 1
0.0930037 0.0930037 0.439216 1
0.0930037 0.0930037 0.439216 1
0.0930037 0.0930037 0.439216 1
0.0930037 0.0930037 0.439216 1
0.0930037 0.0930037 0.439216 1
0.0930037 0.0930037 0.439216 1
0.0930037 0.0930037 0.439216 1
0.0930037 0.0930037 0.439216 1
0.0930037 0.0930037 0.439216 1
0.0930037 0.0930037 0.439216 1
0.0930037 0.0930037 0.439216 1
0.0930037 0.0930037 0.439216 1
0.0930037 0.0930037 0.439216 1
0.0930037 0.0930037 0.439216 1
0.0930037 0.0930037 0.439216 1
0.0930037 0.0930037 0.439216 1
0.0930037 0.0930037 0.439216 1
0.0930037 0.0930037 0.439216 1
0.0930037 0.0930037 0.439216 1
0.0930037 0.0930037 0.439216 1
0.0930037 0.0930037 0.439216 1
0.0930037 0.0930037 0.439216 1
0.0930037 0.0930037 0.439216 1
0.0930037 0.0930037 0.439216 1
0.0930037 0.0930037 0.439216 1
0.0930037 0.0930037 0.439216 1
0.0930037 0.0930037 0.439216 1
0.0930037 0.0930037 0.439216 1
0.0930037 0.0930037 0.439216 1
0.0930037 0.0930037 0.439216 1
0.0930037 0.0930037 0.439216 1
0.0930037 0.0930037 0.439216 1
0.0930037 0.0930037 0.439216 1
0.0930037 0.0930037 0.439216 1
0.0930037 0.0930037 0.439216 1
0.0930037 0.0930037 0.439216 1
0.0930037 0.0930037 0.439216 1
0.0930037 0.0930037 0.439216 1
0.0930037 0.0930037 0.439216 1
0.0930037 0.0930037 0.439216 1
0.0930037 0.0930037 0.439216 1
0.0930037 0.0930037 0.439216 1
0.0930037 0.0930037 0.439216 1
0.0930037 0.0930037 0.439216 1
0.0930037 0.0930037 0.439216 1
0.0930037 0.0930037 0.439216 1
0.0930037 0.0930037 0.439216 1
0.0930037 0.0930037 0.439216 1
0.0930037 0.0930037 0.439216 1
0.0930037 0.0930037 0.439216 1
0.0930037 0.0930037 0.439216 1
0.0930037 0.0930037 0.439216 1
0.0930037 0.0930037 0.439216 1
0.0930037 0.0930037 0.439216 1
0.0930037 0.0930037 0.439216 1
0.0930037 0.0930037 0.439216 1
0.0930037 0.0930037 0.439216 1
0.0930037 0.0930037 0.439216 1
0.0930037 0.0930037 0.439216 1
0.0930037 0.0930037 0.439216 1
0.0930037 0.0930037 0.439216 1
0.0930037 0.0930037 0.439216 1
0.0930037 0.0930037 0.439216 1
0.0930037 0.0930037 0.439216 1
0.0930037 0.0930037 0.439216 1
0.0930037 0.0930037 0.439216 1
0.0930037 0.0930037 0.439216 1
0.0930037 0.0930037 0.439216 1
0.0930037 0.0930037 0.439216 1
0.0930037 0.0930037 0.439216 1
0.0930037 0.0930037 0.439216 1
0.0930037 0.0930037 0.439216 1
0.0930037 0.0930037 0.439216 1
0.0930037 0.0930037 0.439216 1
0.0930037 0.0930037 0.439216 1
0.0930037 0.0930037 0.439216 1
0.0930037 0.0930037 0.439216 1
0.0930037 0.0930037 0.439216 1
0.0930037 0.0930037 0.439216 1
0.0930037 0.0930037 0.439216 1
0.0930037 0.0930037 0.439216 1
0.0930037 0.0930037 0.439216 1
0.0930037 0.0930037 0.439216 1
0.0930037 0.0930037 0.439216 1
0.0930037 0.0930037 0.439216 1
0.0930037 0.0930037 0.439216 1
0.0930037 0.0930037 0.439216 1
0.0930037 0.0930037 0.439216 1
0.0930037 0.0930037 0.439216 1
0.0930037 0.0930037 0.439216 1
0.0930037 0.0930037 0.439216 1
0.0930037 0.0930037 0.439216 1
0.0930037 0.0930037 0.439216 1
0.0930037 0.0930037 0.439216 1
0.0930037 0.0930037 0.439216 1
0.0930037 0.0930037 0.439216 1
0.0930037 0.0930037 0.439216 1
0.0930037 0.0930037 0.439216 1
0.0930037 0.0930037 0.439216 1
0.0930037 0.0930037 0.439216 1
0.0930037 0.0930037 0.439216 1
0.0930037 0.0930037 0.439216 1
0.0930037 0.0930037 0.439216 1
0.0930037 0.0930037 0.439216 1
0.0930037 0.0930037 0.439216 1
0.0930037 0.0930037 0.439216 1
0.0930037 0.0930037 0.439216 1
0.0930037 0.0930037 0.439216 1
0.0930037 0.0930037 0.439216 1
0.0930037 0.0930037 0.439216 1
0.0930037 0.0930037 0.439216 1
0.0930037 0.0930037 0.439216 1
0.0930037 0.0930037 0.439216 1
0.0930037 0.0930037 0.439216 1
0.0930037 0.0930037 0.439216 1
0.0930037 0.0930037 0.439216 1
0.0930037 0.0930037 0.439216 1
0.0930037 0.0930037 0.439216 1
0.0930037 0.0930037 0.439216 1
0.0930037 0.0930037 0.439216 1
0.0930037 0.0930037 0.439216 1
0.0930037 0.0930037 0.439216 1
0.0930037 0.0930037 0.439216 1
0.0930037 0.0930037 0.439216 1
0.0930037 0.0930037 0.439216 1
0.0930037 0.0930037 0.439216 1
0.0930037 0.0930037 0.439216 1
0.0930037 0.0930037 0.439216 1
0.0930037 0.0930037 0.439216 1
0.0930037 0.0930037 0.439216 1
0.0930037 0.0930037 0.439216 1
0.0930037 0.0930037 0.439216 1
0.0930037 0.0930037 0.439216 1
0.0930037 0.0930037 0.439216 1
0.0930037 0.0930037 0.439216 1
0.0930037 0.0930037 0.439216 1
0.0930037 0.0930037 0.439216 1
0.0930037 0.0930037 0.439216 1
0.0930037 0.0930037 0.439216 1
0.0930037 0.0930037 0.439216 1
0.0930037 0.0930037 0.439216 1
0.0930037 0.0930037 0.439216 1
0.0930037 0.0930037 0.439216 1
0.0930037 0.0930037 0.439216 1
0.0930037 0.0930037 0.439216 1
0.0930037 0.0930037 0.439216 1
0.0930037 0.0930037 0.439216 1
0.0930037 0.0930037 0.439216 1
0.0930037 0.0930037 0.439216 1