# vtk DataFile Version 3.0
Gocad TSurf to VTK
ASCII
DATASET POLYDATA
POINTS 218 float
21615500.000 4577020.000 -1082.500
21615500.000 4577235.000 -1055.000
21615600.000 4577115.000 -1090.000
21615700.000 4577235.000 -1095.000
21615700.000 4576990.000 -1125.000
21615350.000 4577095.000 -1043.750
21615225.000 4577372.500 -1033.750
21615250.000 4576942.500 -1083.750
21615575.000 4576825.000 -1151.250
21615200.000 4577170.000 -1005.000
21614975.000 4577072.500 -1035.000
21615075.000 4577237.500 -1022.500
21614800.000 4577335.000 -1067.500
21614900.000 4577230.000 -1060.000
21615200.000 4577862.500 -1143.750
21614675.000 4577577.500 -1162.500
21615800.000 4577930.000 -1185.000
21615900.000 4577525.000 -1177.500
21615600.000 4578115.000 -1185.000
21616075.000 4578477.500 -1187.500
21615400.000 4578300.000 -1185.000
21615600.000 4578322.500 -1196.250
21615000.000 4577840.000 -1130.000
21614950.000 4578095.000 -1277.500
21614650.000 4577715.000 -1250.000
21614800.000 4577915.000 -1277.500
21614525.000 4577415.000 -1155.000
21614150.000 4577312.500 -1297.500
21614600.000 4577230.000 -1005.000
21614450.000 4577257.500 -1102.500
21614300.000 4577285.000 -1200.000
21614225.000 4577047.500 -1166.250
21614450.000 4576892.500 -1138.750
21614150.000 4577145.000 -1242.500
21614150.000 4576950.000 -1156.250
21614100.000 4576570.000 -1310.000
21613850.000 4576950.000 -1288.750
21614000.000 4576665.000 -1321.250
21614000.000 4577340.000 -1395.000
21613700.000 4576950.000 -1355.000
21613800.000 4576855.000 -1343.750
21613900.000 4576760.000 -1332.500
21613725.000 4576787.500 -1343.750
21613850.000 4576715.000 -1332.500
21613600.000 4576860.000 -1355.000
21613700.000 4576570.000 -1390.000
21613350.000 4576355.000 -1507.500
21613800.000 4576280.000 -1425.000
21613200.000 4576380.000 -1535.000
21613300.000 4576275.000 -1507.500
21613400.000 4576170.000 -1480.000
21613075.000 4576057.500 -1548.750
21613425.000 4575992.500 -1466.250
21612900.000 4576090.000 -1590.000
21612925.000 4575875.000 -1523.750
21612600.000 4575720.000 -1605.000
21612700.000 4575605.000 -1535.000
21612800.000 4575480.000 -1465.000
21612600.000 4575730.000 -1605.000
21612600.000 4575720.000 -1590.000
21612700.000 4575597.500 -1523.750
21612800.000 4575475.000 -1457.500
21612900.000 4575352.500 -1391.250
21613000.000 4575230.000 -1325.000
21613500.000 4576065.000 -1452.500
21613225.000 4575270.000 -1395.000
21613775.000 4575950.000 -1480.000
21613100.000 4575105.000 -1367.500
21613200.000 4574980.000 -1410.000
21613200.000 4574975.000 -1410.000
21613675.000 4575350.000 -1535.000
21613900.000 4575097.500 -1583.750
21613525.000 4574595.000 -1501.250
21614400.000 4575780.000 -1652.500
21614200.000 4576245.000 -1477.500
21614500.000 4575367.500 -1657.500
21613900.000 4574805.000 -1562.500
21614700.000 4575360.000 -1675.000
21615050.000 4576092.500 -1646.250
21613900.000 4574220.000 -1520.000
21613775.000 4574345.000 -1513.750
21614200.000 4574392.500 -1545.000
21614900.000 4575135.000 -1647.500
21614050.000 4573975.000 -1457.500
21614800.000 4574737.500 -1595.000
21613975.000 4574095.000 -1488.750
21614050.000 4573970.000 -1457.500
21614125.000 4573845.000 -1426.250
21614200.000 4573730.000 -1395.000
21614200.000 4573720.000 -1395.000
21614325.000 4573577.500 -1433.750
21614500.000 4573822.500 -1468.750
21614325.000 4573570.000 -1433.750
21614450.000 4573425.000 -1472.500
21614575.000 4573272.500 -1511.250
21615100.000 4574007.500 -1616.250
21614575.000 4573270.000 -1511.250
21614700.000 4573120.000 -1550.000
21615400.000 4574100.000 -1690.000
21615325.000 4574302.500 -1672.500
21615250.000 4574505.000 -1655.000
21615600.000 4574450.000 -1730.000
21615475.000 4574565.000 -1702.500
21615625.000 4574677.500 -1702.500
21615450.000 4574755.000 -1675.000
21615800.000 4574600.000 -1730.000
21615900.000 4574860.000 -1645.000
21615825.000 4575042.500 -1656.250
21615300.000 4574897.500 -1626.250
21616125.000 4575342.500 -1438.750
21615600.000 4575590.000 -1690.000
21616300.000 4575260.000 -1355.000
21616200.000 4575450.000 -1427.500
21616100.000 4575640.000 -1500.000
21616300.000 4575565.000 -1351.250
21616475.000 4575807.500 -1323.750
21616400.000 4576000.000 -1277.500
21616300.000 4575870.000 -1347.500
21616500.000 4576200.000 -1285.000
21616650.000 4576355.000 -1292.500
21616450.000 4576370.000 -1238.750
21616300.000 4576182.500 -1332.500
21616600.000 4576670.000 -1250.000
21616300.000 4576480.000 -1340.000
21616825.000 4576902.500 -1261.250
21616700.000 4576455.000 -1285.000
21616700.000 4577140.000 -1215.000
21617000.000 4577450.000 -1230.000
21616375.000 4576835.000 -1192.500
21616225.000 4576647.500 -1286.250
21616175.000 4577125.000 -1181.250
21616700.000 4577815.000 -1297.500
21616250.000 4576930.000 -1185.000
21616125.000 4577025.000 -1177.500
21616150.000 4576805.000 -1247.500
21615925.000 4576782.500 -1201.250
21616050.000 4576680.000 -1242.500
21615800.000 4576870.000 -1160.000
21616000.000 4576600.000 -1270.000
21616000.000 4577120.000 -1170.000
21615850.000 4577177.500 -1132.500
21616700.000 4578040.000 -1325.000
21616800.000 4577942.500 -1297.500
21616475.000 4578012.500 -1290.000
21616575.000 4578127.500 -1301.250
21616725.000 4578307.500 -1278.750
21616450.000 4578215.000 -1277.500
21616550.000 4578335.000 -1262.500
21616325.000 4578302.500 -1253.750
21616525.000 4578647.500 -1246.250
21616400.000 4578770.000 -1230.000
21616650.000 4578525.000 -1262.500
21616775.000 4578402.500 -1278.750
21616900.000 4578280.000 -1295.000
21616950.000 4578122.500 -1275.000
21617000.000 4577965.000 -1255.000
21616900.000 4577845.000 -1270.000
21616925.000 4577597.500 -1253.750
21617050.000 4577807.500 -1235.000
21617000.000 4577747.500 -1242.500
21617100.000 4577650.000 -1215.000
21616900.000 4577052.500 -1250.000
21616225.000 4578762.500 -1187.500
21616050.000 4578755.000 -1145.000
21616300.000 4578850.000 -1152.500
21616200.000 4578930.000 -1075.000
21616100.000 4579010.000 -997.500
21615875.000 4578747.500 -1102.500
21616000.000 4579090.000 -920.000
21615950.000 4578565.000 -1145.000
21615825.000 4578652.500 -1102.500
21615800.000 4578345.000 -1207.500
21615700.000 4578740.000 -1060.000
21615750.000 4578930.000 -1067.500
21615325.000 4578695.000 -1288.750
21615975.000 4579192.500 -962.500
21615950.000 4579290.000 -1005.000
21615975.000 4579190.000 -962.500
21615850.000 4579310.000 -1082.500
21615925.000 4579390.000 -1047.500
21615925.000 4579397.500 -1047.500
21615900.000 4579500.000 -1090.000
21615900.000 4579490.000 -1090.000
21615200.000 4578680.000 -1365.000
21615250.000 4578585.000 -1320.000
21615300.000 4578490.000 -1275.000
21615025.000 4578337.500 -1365.000
21615275.000 4578312.500 -1245.000
21614900.000 4578350.000 -1425.000
21614600.000 4577990.000 -1425.000
21614700.000 4577952.500 -1351.250
21615800.000 4576365.000 -1422.500
21615400.000 4576320.000 -1560.000
21615775.000 4576095.000 -1623.750
21615100.000 4576717.500 -1263.750
21614750.000 4576975.000 -1145.000
21614750.000 4576777.500 -1236.250
21614850.000 4577125.000 -1025.000
21614675.000 4577102.500 -1075.000
21614725.000 4577177.500 -1015.000
21614600.000 4576835.000 -1187.500
21614500.000 4576645.000 -1297.500
21614300.000 4576607.500 -1303.750
21614350.000 4576425.000 -1435.000
21614225.000 4576497.500 -1372.500
21614150.000 4576407.500 -1393.750
21615500.000 4575692.500 -1686.250
21614925.000 4575415.000 -1678.750
21615150.000 4575470.000 -1682.500
21615100.000 4574910.000 -1620.000
21615175.000 4574707.500 -1637.500
21615225.000 4574795.000 -1647.500
21615350.000 4574680.000 -1675.000
21616000.000 4575830.000 -1572.500
21616150.000 4576545.000 -1293.750
21613775.000 4574345.000 -1513.750
21613400.000 4574720.000 -1495.000
21613300.000 4574847.500 -1452.500

POLYGONS 379 1516
3 189 190 24
3 143 146 144
3 176 175 173
3 49 48 46
3 144 145 141
3 200 32 198
3 103 104 108
3 168 175 177
3 167 172 168
3 170 21 172
3 132 128 134
3 200 201 32
3 112 113 114
3 196 195 194
3 18 171 19
3 88 87 83
3 196 200 195
3 28 32 31
3 119 125 115
3 194 7 8
3 62 61 57
3 148 143 16
3 109 107 110
3 140 3 17
3 128 130 126
3 155 156 142
3 20 22 23
3 64 46 47
3 40 39 36
3 88 89 87
3 120 121 123
3 34 33 31
3 128 126 122
3 117 213 121
3 41 40 36
3 192 8 191
3 102 100 212
3 25 190 23
3 71 72 68
3 26 30 27
3 158 159 156
3 80 215 216
3 63 52 64
3 187 20 23
3 90 88 91
3 77 207 82
3 111 109 112
3 175 176 177
3 204 205 35
3 150 149 148
3 20 187 185
3 63 62 57
3 108 104 211
3 38 189 27
3 202 35 31
3 52 63 57
3 98 95 99
3 134 128 129
3 185 184 174
3 102 99 100
3 101 98 99
3 201 200 196
3 145 153 141
3 214 129 123
3 15 14 12
3 42 40 43
3 130 131 126
3 184 185 187
3 7 0 8
3 4 140 137
3 142 156 157
3 131 130 139
3 3 2 1
3 178 176 173
3 24 25 22
3 189 188 23
3 16 17 6
3 51 49 52
3 70 71 68
3 6 9 11
3 54 52 57
3 9 5 7
3 132 133 130
3 139 133 137
3 133 135 137
3 55 54 56
3 158 156 155
3 65 64 66
3 38 27 33
3 97 94 95
3 94 96 93
3 145 152 153
3 132 134 133
3 123 121 193
3 36 38 33
3 14 6 12
3 0 1 2
3 44 39 42
3 139 141 131
3 37 35 45
3 32 202 31
3 65 68 67
3 24 26 27
3 209 84 82
3 72 80 216
3 171 169 19
3 73 71 66
3 85 79 83
3 168 173 175
3 20 21 18
3 35 37 34
3 117 116 114
3 57 56 54
3 34 37 36
3 88 209 91
3 127 160 161
3 75 77 76
3 107 108 110
3 157 127 126
3 47 35 205
3 194 192 78
3 28 26 15
3 107 106 103
3 201 202 32
3 172 185 174
3 103 102 104
3 184 183 174
3 197 13 10
3 13 11 10
3 190 189 23
3 137 8 4
3 95 100 99
3 202 201 203
3 77 78 206
3 79 81 83
3 60 59 56
3 122 124 119
3 131 142 157
3 202 204 35
3 205 203 74
3 169 171 170
3 66 64 47
3 77 79 76
3 54 51 52
3 158 160 159
3 54 53 51
3 116 115 114
3 133 134 135
3 39 38 36
3 53 48 51
3 50 49 46
3 13 199 12
3 195 10 194
3 129 128 122
3 205 74 47
3 147 149 151
3 81 77 82
3 8 192 194
3 203 201 196
3 190 25 24
3 195 200 198
3 13 197 199
3 154 142 141
3 157 160 127
3 141 153 154
3 207 208 82
3 87 86 83
3 212 210 211
3 113 117 114
3 174 178 173
3 143 141 139
3 64 50 46
3 150 148 19
3 102 212 104
3 104 212 211
3 111 106 109
3 159 160 157
3 33 34 36
3 217 69 68
3 208 206 110
3 116 118 115
3 191 137 138
3 179 178 180
3 213 193 121
3 172 20 185
3 145 151 152
3 191 193 192
3 46 44 45
3 121 120 116
3 81 84 83
3 60 56 57
3 3 140 4
3 7 5 0
3 19 148 16
3 65 63 64
3 73 75 71
3 71 70 66
3 61 60 57
3 110 206 193
3 66 74 73
3 199 198 28
3 143 17 16
3 8 137 191
3 176 178 179
3 14 16 6
3 11 9 10
3 108 209 110
3 79 80 76
3 98 97 95
3 21 20 172
3 28 29 26
3 129 122 123
3 47 74 66
3 192 193 206
3 4 0 2
3 76 80 72
3 149 147 148
3 124 127 161
3 1 5 6
3 164 162 165
3 163 19 169
3 94 93 91
3 213 113 109
3 135 136 138
3 22 25 23
3 55 53 54
3 46 45 47
3 11 13 12
3 72 216 68
3 110 213 109
3 156 159 157
3 209 82 208
3 59 58 56
3 137 135 138
3 35 47 45
3 106 105 103
3 203 196 78
3 206 78 192
3 210 100 91
3 212 100 210
3 167 170 172
3 121 116 117
3 167 163 169
3 208 207 206
3 43 41 37
3 163 162 19
3 14 20 18
3 163 167 166
3 81 79 77
3 209 108 211
3 85 83 86
3 21 171 18
3 181 182 180
3 91 209 210
3 188 183 186
3 215 80 79
3 119 120 122
3 4 8 0
3 92 90 93
3 178 181 180
3 162 163 165
3 101 102 103
3 207 77 206
3 16 18 19
3 131 141 142
3 76 71 75
3 14 18 16
3 65 67 63
3 42 43 45
3 171 21 170
3 14 22 20
3 29 31 30
3 97 96 94
3 45 43 37
3 198 197 195
3 92 89 90
3 196 194 78
3 162 150 19
3 73 203 78
3 128 132 130
3 52 50 64
3 188 186 23
3 30 33 27
3 12 28 15
3 71 76 72
3 136 214 138
3 93 90 91
3 51 48 49
3 26 29 30
3 164 150 162
3 2 3 4
3 48 44 46
3 148 146 143
3 113 112 109
3 167 169 170
3 145 147 151
3 186 184 187
3 183 181 178
3 131 157 126
3 68 69 67
3 29 28 31
3 143 144 141
3 165 163 166
3 78 77 73
3 133 139 130
3 204 203 205
3 147 145 144
3 84 209 88
3 37 41 36
3 17 3 1
3 173 172 174
3 106 107 109
3 118 119 115
3 134 136 135
3 216 217 68
3 95 94 91
3 105 101 103
3 117 113 213
3 147 146 148
3 6 11 12
3 119 118 120
3 197 10 195
3 214 136 129
3 155 142 154
3 115 111 114
3 27 189 24
3 210 209 211
3 10 7 194
3 199 197 198
3 122 120 123
3 103 108 107
3 82 84 81
3 209 208 110
3 89 88 90
3 100 95 91
3 191 123 193
3 202 203 204
3 70 65 66
3 15 24 22
3 198 32 28
3 49 50 52
3 84 88 83
3 58 55 56
3 213 110 193
3 146 147 144
3 143 139 17
3 101 99 102
3 168 172 173
3 166 167 168
3 180 182 179
3 43 40 41
3 31 33 30
3 74 203 73
3 111 112 114
3 22 14 15
3 5 9 6
3 122 126 124
3 0 5 1
3 140 139 137
3 186 183 184
3 77 75 73
3 23 186 187
3 70 68 65
3 191 138 123
3 35 34 31
3 124 161 125
3 118 116 120
3 44 42 45
3 174 183 178
3 126 127 124
3 42 39 40
3 119 124 125
3 10 9 7
3 139 140 17
3 134 129 136
3 15 26 24
3 138 214 123
3 17 1 6
3 12 199 28

POINT_DATA 218
COLOR_SCALARS GocadColor 4
1 0.74902 0.795026 1
1 0.74902 0.795026 1
1 0.74902 0.795026 1
1 0.74902 0.795026 1
1 0.74902 0.795026 1
1 0.74902 0.795026 1
1 0.74902 0.795026 1
1 0.74902 0.795026 1
1 0.74902 0.795026 1
1 0.74902 0.795026 1
1 0.74902 0.795026 1
1 0.74902 0.795026 1
1 0.74902 0.795026 1
1 0.74902 0.795026 1
1 0.74902 0.795026 1
1 0.74902 0.795026 1
1 0.74902 0.795026 1
1 0.74902 0.795026 1
1 0.74902 0.795026 1
1 0.74902 0.795026 1
1 0.74902 0.795026 1
1 0.74902 0.795026 1
1 0.74902 0.795026 1
1 0.74902 0.795026 1
1 0.74902 0.795026 1
1 0.74902 0.795026 1
1 0.74902 0.795026 1
1 0.74902 0.795026 1
1 0.74902 0.795026 1
1 0.74902 0.795026 1
1 0.74902 0.795026 1
1 0.74902 0.795026 1
1 0.74902 0.795026 1
1 0.74902 0.795026 1
1 0.74902 0.795026 1
1 0.74902 0.795026 1
1 0.74902 0.795026 1
1 0.74902 0.795026 1
1 0.74902 0.795026 1
1 0.74902 0.795026 1
1 0.74902 0.795026 1
1 0.74902 0.795026 1
1 0.74902 0.795026 1
1 0.74902 0.795026 1
1 0.74902 0.795026 1
1 0.74902 0.795026 1
1 0.74902 0.795026 1
1 0.74902 0.795026 1
1 0.74902 0.795026 1
1 0.74902 0.795026 1
1 0.74902 0.795026 1
1 0.74902 0.795026 1
1 0.74902 0.795026 1
1 0.74902 0.795026 1
1 0.74902 0.795026 1
1 0.74902 0.795026 1
1 0.74902 0.795026 1
1 0.74902 0.795026 1
1 0.74902 0.795026 1
1 0.74902 0.795026 1
1 0.74902 0.795026 1
1 0.74902 0.795026 1
1 0.74902 0.795026 1
1 0.74902 0.795026 1
1 0.74902 0.795026 1
1 0.74902 0.795026 1
1 0.74902 0.795026 1
1 0.74902 0.795026 1
1 0.74902 0.795026 1
1 0.74902 0.795026 1
1 0.74902 0.795026 1
1 0.74902 0.795026 1
1 0.74902 0.795026 1
1 0.74902 0.795026 1
1 0.74902 0.795026 1
1 0.74902 0.795026 1
1 0.74902 0.795026 1
1 0.74902 0.795026 1
1 0.74902 0.795026 1
1 0.74902 0.795026 1
1 0.74902 0.795026 1
1 0.74902 0.795026 1
1 0.74902 0.795026 1
1 0.74902 0.795026 1
1 0.74902 0.795026 1
1 0.74902 0.795026 1
1 0.74902 0.795026 1
1 0.74902 0.795026 1
1 0.74902 0.795026 1
1 0.74902 0.795026 1
1 0.74902 0.795026 1
1 0.74902 0.795026 1
1 0.74902 0.795026 1
1 0.74902 0.795026 1
1 0.74902 0.795026 1
1 0.74902 0.795026 1
1 0.74902 0.795026 1
1 0.74902 0.795026 1
1 0.74902 0.795026 1
1 0.74902 0.795026 1
1 0.74902 0.795026 1
1 0.74902 0.795026 1
1 0.74902 0.795026 1
1 0.74902 0.795026 1
1 0.74902 0.795026 1
1 0.74902 0.795026 1
1 0.74902 0.795026 1
1 0.74902 0.795026 1
1 0.74902 0.795026 1
1 0.74902 0.795026 1
1 0.74902 0.795026 1
1 0.74902 0.795026 1
1 0.74902 0.795026 1
1 0.74902 0.795026 1
1 0.74902 0.795026 1
1 0.74902 0.795026 1
1 0.74902 0.795026 1
1 0.74902 0.795026 1
1 0.74902 0.795026 1
1 0.74902 0.795026 1
1 0.74902 0.795026 1
1 0.74902 0.795026 1
1 0.74902 0.795026 1
1 0.74902 0.795026 1
1 0.74902 0.795026 1
1 0.74902 0.795026 1
1 0.74902 0.795026 1
1 0.74902 0.795026 1
1 0.74902 0.795026 1
1 0.74902 0.795026 1
1 0.74902 0.795026 1
1 0.74902 0.795026 1
1 0.74902 0.795026 1
1 0.74902 0.795026 1
1 0.74902 0.795026 1
1 0.74902 0.795026 1
1 0.74902 0.795026 1
1 0.74902 0.795026 1
1 0.74902 0.795026 1
1 0.74902 0.795026 1
1 0.74902 0.795026 1
1 0.74902 0.795026 1
1 0.74902 0.795026 1
1 0.74902 0.795026 1
1 0.74902 0.795026 1
1 0.74902 0.795026 1
1 0.74902 0.795026 1
1 0.74902 0.795026 1
1 0.74902 0.795026 1
1 0.74902 0.795026 1
1 0.74902 0.795026 1
1 0.74902 0.795026 1
1 0.74902 0.795026 1
1 0.74902 0.795026 1
1 0.74902 0.795026 1
1 0.74902 0.795026 1
1 0.74902 0.795026 1
1 0.74902 0.795026 1
1 0.74902 0.795026 1
1 0.74902 0.795026 1
1 0.74902 0.795026 1
1 0.74902 0.795026 1
1 0.74902 0.795026 1
1 0.74902 0.795026 1
1 0.74902 0.795026 1
1 0.74902 0.795026 1
1 0.74902 0.795026 1
1 0.74902 0.795026 1
1 0.74902 0.795026 1
1 0.74902 0.795026 1
1 0.74902 0.795026 1
1 0.74902 0.795026 1
1 0.74902 0.795026 1
1 0.74902 0.795026 1
1 0.74902 0.795026 1
1 0.74902 0.795026 1
1 0.74902 0.795026 1
1 0.74902 0.795026 1
1 0.74902 0.795026 1
1 0.74902 0.795026 1
1 0.74902 0.795026 1
1 0.74902 0.795026 1
1 0.74902 0.795026 1
1 0.74902 0.795026 1
1 0.74902 0.795026 1
1 0.74902 0.795026 1
1 0.74902 0.795026 1
1 0.74902 0.795026 1
1 0.74902 0.795026 1
1 0.74902 0.795026 1
1 0.74902 0.795026 1
1 0.74902 0.795026 1
1 0.74902 0.795026 1
1 0.74902 0.795026 1
1 0.74902 0.795026 1
1 0.74902 0.795026 1
1 0.74902 0.795026 1
1 0.74902 0.795026 1
1 0.74902 0.795026 1
1 0.74902 0.795026 1
1 0.74902 0.795026 1
1 0.74902 0.795026 1
1 0.74902 0.795026 1
1 0.74902 0.795026 1
1 0.74902 0.795026 1
1 0.74902 0.795026 1
1 0.74902 0.795026 1
1 0.74902 0.795026 1
1 0.74902 0.795026 1
1 0.74902 0.795026 1
1 0.74902 0.795026 1
1 0.74902 0.795026 1
1 0.74902 0.795026 1
1 0.74902 0.795026 1
1 0.74902 0.795026 1
1 0.74902 0.795026 1
1 0.74902 0.795026 1
1 0.74902 0.795026 1

