# vtk DataFile Version 3.0
Gocad TSurf to VTK
ASCII
DATASET POLYDATA
POINTS 555 float
21614150.000 4584480.000 -1925.000
21614125.000 4584600.000 -1940.000
21614300.000 4584640.000 -1836.250
21614100.000 4584720.000 -1955.000
21614175.000 4584360.000 -1910.000
21614200.000 4584240.000 -1895.000
21615150.000 4584760.000 -1320.000
21615400.000 4585120.000 -1160.000
21614725.000 4583880.000 -1835.000
21615300.000 4584325.000 -1318.750
21614175.000 4584070.000 -2007.500
21614150.000 4583900.000 -2120.000
21614125.000 4583730.000 -2232.500
21614100.000 4583560.000 -2345.000
21614600.000 4583375.000 -2052.500
21615175.000 4583665.000 -1675.000
21614150.000 4583417.500 -2331.250
21614200.000 4583275.000 -2317.500
21614250.000 4583132.500 -2303.750
21614300.000 4582990.000 -2290.000
21615725.000 4583475.000 -1395.000
21616125.000 4583560.000 -1150.000
21616100.000 4584175.000 -996.250
21614700.000 4582940.000 -2073.750
21615950.000 4583085.000 -1340.000
21614300.000 4582842.500 -2338.750
21614300.000 4582695.000 -2387.500
21615500.000 4582840.000 -1641.250
21614300.000 4582547.500 -2436.250
21614300.000 4582400.000 -2485.000
21615525.000 4582467.500 -1658.750
21614325.000 4582175.000 -2453.750
21615150.000 4582145.000 -1892.500
21616200.000 4582510.000 -1292.500
21614350.000 4581950.000 -2422.500
21614375.000 4581725.000 -2391.250
21614400.000 4581500.000 -2360.000
21614975.000 4581530.000 -2060.000
21616550.000 4582077.500 -1160.000
21614425.000 4581330.000 -2352.500
21614450.000 4581160.000 -2345.000
21614475.000 4580990.000 -2337.500
21616125.000 4581590.000 -1460.000
21614500.000 4580820.000 -2330.000
21616700.000 4581620.000 -1160.000
21616000.000 4580940.000 -1597.500
21617400.000 4581080.000 -935.000
21614700.000 4580680.000 -2256.250
21615300.000 4580260.000 -2035.000
21614575.000 4580632.500 -2316.250
21614650.000 4580445.000 -2302.500
21614725.000 4580257.500 -2288.750
21614800.000 4580070.000 -2275.000
21614900.000 4579942.500 -2218.750
21615250.000 4579910.000 -2042.500
21616875.000 4580387.500 -1228.750
21615000.000 4579815.000 -2162.500
21615100.000 4579687.500 -2106.250
21615200.000 4579560.000 -2050.000
21617400.000 4580430.000 -960.000
21617400.000 4580917.500 -941.250
21615625.000 4579552.500 -1966.250
21617275.000 4580205.000 -1148.750
21615350.000 4579447.500 -2112.500
21615500.000 4579335.000 -2175.000
21615650.000 4579222.500 -2237.500
21616475.000 4579537.500 -1798.750
21615800.000 4579110.000 -2300.000
21616900.000 4579530.000 -1715.000
21616675.000 4579297.500 -1868.750
21617650.000 4578987.500 -1451.250
21615850.000 4578982.500 -2307.500
21615900.000 4578855.000 -2315.000
21616225.000 4578832.500 -2176.250
21615950.000 4578727.500 -2322.500
21616000.000 4578600.000 -2330.000
21617050.000 4578520.000 -1870.000
21617800.000 4578805.000 -1437.500
21616150.000 4578417.500 -2316.250
21616300.000 4578235.000 -2302.500
21616450.000 4578052.500 -2288.750
21616600.000 4577870.000 -2275.000
21617500.000 4577850.000 -1682.500
21616675.000 4577717.500 -2195.000
21616750.000 4577565.000 -2115.000
21616825.000 4577412.500 -2035.000
21616900.000 4577260.000 -1955.000
21618300.000 4577750.000 -1295.000
21617925.000 4577450.000 -1473.750
21618425.000 4577612.500 -1236.250
21616875.000 4577082.500 -1968.750
21617550.000 4577150.000 -1652.500
21616850.000 4576905.000 -1982.500
21616825.000 4576727.500 -1996.250
21616800.000 4576550.000 -2010.000
21618100.000 4576715.000 -1360.000
21616950.000 4576470.000 -1922.500
21617400.000 4576230.000 -1660.000
21616750.000 4576412.500 -2013.750
21616700.000 4576275.000 -2017.500
21616650.000 4576137.500 -2021.250
21616600.000 4576000.000 -2025.000
21617150.000 4576100.000 -1813.750
21619400.000 4576340.000 -905.000
21616550.000 4575927.500 -2087.500
21616500.000 4575855.000 -2150.000
21616450.000 4575782.500 -2212.500
21616400.000 4575710.000 -2275.000
21617125.000 4575760.000 -2010.000
21619350.000 4576125.000 -1060.000
21616350.000 4575617.500 -2411.250
21616300.000 4575525.000 -2547.500
21616250.000 4575432.500 -2683.750
21618575.000 4575860.000 -1480.000
21616200.000 4575340.000 -2820.000
21619300.000 4575910.000 -1215.000
21616850.000 4575322.500 -2481.250
21619175.000 4575750.000 -1277.500
21616150.000 4575250.000 -2812.500
21616100.000 4575160.000 -2805.000
21618150.000 4575287.500 -1803.750
21616050.000 4575070.000 -2797.500
21616000.000 4574980.000 -2790.000
21618800.000 4575270.000 -1465.000
21616700.000 4574925.000 -2451.250
21618100.000 4574815.000 -1773.750
21615950.000 4574907.500 -2776.250
21615900.000 4574835.000 -2762.500
21615850.000 4574762.500 -2748.750
21615800.000 4574690.000 -2735.000
21618825.000 4574637.500 -1435.000
21617250.000 4574660.000 -1910.000
21618900.000 4574270.000 -1435.000
21615775.000 4574657.500 -2647.500
21615750.000 4574625.000 -2560.000
21615725.000 4574592.500 -2472.500
21615700.000 4574560.000 -2385.000
21616425.000 4574362.500 -2147.500
21618750.000 4574020.000 -1435.000
21615675.000 4574500.000 -2346.250
21615650.000 4574440.000 -2307.500
21617875.000 4573967.500 -1672.500
21615625.000 4574380.000 -2268.750
21615600.000 4574320.000 -2230.000
21618525.000 4573402.500 -1341.250
21617775.000 4573540.000 -1540.000
21615550.000 4574245.000 -2210.000
21617700.000 4573430.000 -1513.750
21620400.000 4573185.000 -885.000
21615400.000 4574020.000 -2150.000
21615375.000 4573985.000 -2143.750
21615450.000 4574095.000 -2170.000
21615500.000 4574170.000 -2190.000
21616900.000 4573580.000 -1717.500
21618575.000 4572852.500 -1343.750
21615350.000 4573950.000 -2137.500
21615325.000 4573915.000 -2131.250
21615300.000 4573880.000 -2125.000
21618600.000 4572710.000 -1355.000
21616050.000 4573472.500 -1872.500
21617550.000 4572657.500 -1367.500
21615275.000 4573835.000 -2127.500
21615250.000 4573790.000 -2130.000
21615225.000 4573745.000 -2132.500
21615200.000 4573700.000 -2135.000
21618300.000 4572250.000 -1115.000
21615800.000 4573282.500 -1946.250
21617775.000 4572085.000 -1313.750
21615150.000 4573647.500 -2127.500
21615100.000 4573595.000 -2120.000
21615050.000 4573542.500 -2112.500
21617000.000 4572447.500 -1568.750
21615000.000 4573490.000 -2105.000
21616925.000 4572345.000 -1530.000
21614975.000 4573440.000 -2073.750
21617900.000 4571317.500 -1057.500
21620450.000 4570035.000 -622.500
21616250.000 4572660.000 -1680.000
21618000.000 4571080.000 -950.000
21614950.000 4573390.000 -2042.500
21614925.000 4573340.000 -2011.250
21614900.000 4573290.000 -1980.000
21622600.000 4567780.000 -305.000
21622825.000 4568687.500 -297.500
21622825.000 4568687.500 -297.500
21622900.000 4568990.000 -295.000
21621750.000 4569805.000 -500.000
21622925.000 4569267.500 -270.000
21622975.000 4569830.000 -220.000
21620550.000 4571735.000 -685.000
21622950.000 4570387.500 -210.000
21622900.000 4570665.000 -225.000
21623000.000 4570110.000 -195.000
21622800.000 4571220.000 -255.000
21622850.000 4570942.500 -240.000
21620550.000 4572505.000 -767.500
21622725.000 4571490.000 -236.250
21621525.000 4572402.500 -473.750
21618525.000 4573137.500 -1321.250
21622575.000 4572030.000 -198.750
21622500.000 4572300.000 -180.000
21622575.000 4572030.000 -198.750
21622450.000 4572497.500 -250.000
21622350.000 4572892.500 -390.000
21622450.000 4572497.500 -250.000
21622400.000 4572695.000 -320.000
21622300.000 4573090.000 -460.000
21620350.000 4573870.000 -955.000
21622250.000 4573310.000 -463.750
21622200.000 4573530.000 -467.500
21621225.000 4573920.000 -715.000
21622150.000 4573750.000 -471.250
21622100.000 4573970.000 -475.000
21620400.000 4574550.000 -807.500
21621950.000 4574615.000 -253.750
21621950.000 4574615.000 -253.750
21621900.000 4574830.000 -180.000
21620300.000 4575175.000 -807.500
21621825.000 4575400.000 -180.000
21621800.000 4575590.000 -180.000
21621175.000 4575670.000 -438.750
21621725.000 4576160.000 -108.750
21619925.000 4575830.000 -956.250
21621700.000 4576350.000 -85.000
21621125.000 4576347.500 -290.000
21621675.000 4576465.000 -53.750
21621625.000 4576695.000 8.750
21621675.000 4576465.000 -53.750
21619975.000 4576342.500 -700.000
21621600.000 4576810.000 40.000
21619900.000 4576607.500 -626.250
21621450.000 4577260.000 167.500
21621400.000 4577410.000 210.000
21620750.000 4577357.500 -107.500
21621375.000 4577562.500 188.750
21621350.000 4577715.000 167.500
21621375.000 4577562.500 188.750
21619450.000 4577252.500 -742.500
21621325.000 4577867.500 146.250
21621300.000 4578020.000 125.000
21620000.000 4577995.000 -487.500
21621225.000 4578597.500 95.000
21621200.000 4578790.000 85.000
21620425.000 4578702.500 -288.750
21620975.000 4579352.500 261.250
21620900.000 4579540.000 320.000
21619300.000 4579410.000 -510.000
21620694.094 4579972.398 356.033
21620585.555 4580161.555 362.691
21620472.813 4580358.023 369.607
21620464.063 4580372.047 370.125
21618850.000 4580015.000 -522.500
21620385.805 4580487.930 374.607
21620147.891 4580827.383 383.619
21620143.766 4580837.336 383.616
21620227.844 4580716.008 381.559
21620294.320 4580623.406 379.846
21620127.602 4580848.883 384.318
21619500.000 4580752.500 75.000
21620005.578 4581104.109 385.243
21619873.656 4581366.695 383.266
21619859.523 4581394.133 382.901
21619941.211 4581235.508 385.009
21619962.844 4581193.500 385.567
21619857.727 4581403.000 382.626
21618450.000 4581170.000 -362.500
21619841.492 4581483.133 380.136
21618975.000 4581540.000 -63.750
21619800.000 4581535.000 362.500
21619500.000 4581910.000 235.000
21619600.000 4581785.000 277.500
21618200.000 4581790.000 -440.000
21619125.000 4582352.500 100.000
21619000.000 4582500.000 55.000
21617175.000 4581962.500 -831.250
21618900.000 4582622.500 80.000
21617650.000 4582305.000 -502.500
21618900.000 4582622.500 80.000
21618800.000 4582745.000 105.000
21618700.000 4582867.500 130.000
21618600.000 4582990.000 155.000
21617450.000 4582825.000 -537.500
21618550.000 4583097.500 137.500
21617925.000 4583122.500 -226.250
21618500.000 4583200.000 120.000
21618450.000 4583305.000 102.500
21618550.000 4583095.000 137.500
21618400.000 4583410.000 85.000
[...]
POINT_DATA 555
COLOR_SCALARS GocadColor 4
1 0.74902 0.795026 1
1 0.74902 0.795026 1
1 0.74902 0.795026 1
1 0.74902 0.795026 1
1 0.74902 0.795026 1
1 0.74902 0.795026 1
1 0.74902 0.795026 1
1 0.74902 0.795026 1
1 0.74902 0.795026 1
1 0.74902 0.795026 1
1 0.74902 0.795026 1
1 0.74902 0.795026 1
1 0.74902 0.795026 1
1 0.74902 0.795026 1
1 0.74902 0.795026 1
1 0.74902 0.795026 1
1 0.74902 0.795026 1
1 0.74902 0.795026 1
1 0.74902 0.795026 1
1 0.74902 0.795026 1
1 0.74902 0.795026 1
1 0.74902 0.795026 1
1 0.74902 0.795026 1
1 0.74902 0.795026 1
1 0.74902 0.795026 1
1 0.74902 0.795026 1
1 0.74902 0.795026 1
1 0.74902 0.795026 1
1 0.74902 0.795026 1
1 0.74902 0.795026 1
1 0.74902 0.795026 1
1 0.74902 0.795026 1
1 0.74902 0.795026 1
1 0.74902 0.795026 1
1 0.74902 0.795026 1
1 0.74902 0.795026 1
1 0.74902 0.795026 1
1 0.74902 0.795026 1
1 0.74902 0.795026 1
1 0.74902 0.795026 1
1 0.74902 0.795026 1
1 0.74902 0.795026 1
1 0.74902 0.795026 1
1 0.74902 0.795026 1
1 0.74902 0.795026 1
1 0.74902 0.795026 1
1 0.74902 0.795026 1
1 0.74902 0.795026 1
1 0.74902 0.795026 1
1 0.74902 0.795026 1
1 0.74902 0.795026 1
1 0.74902 0.795026 1
1 0.74902 0.795026 1
1 0.74902 0.795026 1
1 0.74902 0.795026 1
1 0.74902 0.795026 1
1 0.74902 0.795026 1
1 0.74902 0.795026 1
1 0.74902 0.795026 1
1 0.74902 0.795026 1
1 0.74902 0.795026 1
1 0.74902 0.795026 1
1 0.74902 0.795026 1
1 0.74902 0.795026 1
1 0.74902 0.795026 1
1 0.74902 0.795026 1
1 0.74902 0.795026 1
1 0.74902 0.795026 1
1 0.74902 0.795026 1
1 0.74902 0.795026 1
1 0.74902 0.795026 1
1 0.74902 0.795026 1
1 0.74902 0.795026 1
1 0.74902 0.795026 1
1 0.74902 0.795026 1
1 0.74902 0.795026 1
1 0.74902 0.795026 1
1 0.74902 0.795026 1
1 0.74902 0.795026 1
1 0.74902 0.795026 1
1 0.74902 0.795026 1
1 0.74902 0.795026 1
1 0.74902 0.795026 1
1 0.74902 0.795026 1
1 0.74902 0.795026 1
1 0.74902 0.795026 1
1 0.74902 0.795026 1
1 0.74902 0.795026 1
1 0.74902 0.795026 1
1 0.74902 0.795026 1
1 0.74902 0.795026 1
1 0.74902 0.795026 1
1 0.74902 0.795026 1
1 0.74902 0.795026 1
1 0.74902 0.795026 1
1 0.74902 0.795026 1
1 0.74902 0.795026 1
1 0.74902 0.795026 1
1 0.74902 0.795026 1
1 0.74902 0.795026 1
1 0.74902 0.795026 1
1 0.74902 0.795026 1
1 0.74902 0.795026 1
1 0.74902 0.795026 1
1 0.74902 0.795026 1
1 0.74902 0.795026 1
1 0.74902 0.795026 1
1 0.74902 0.795026 1
1 0.74902 0.795026 1
1 0.74902 0.795026 1
1 0.74902 0.795026 1
1 0.74902 0.795026 1
1 0.74902 0.795026 1
1 0.74902 0.795026 1
1 0.74902 0.795026 1
1 0.74902 0.795026 1
1 0.74902 0.795026 1
1 0.74902 0.795026 1
1 0.74902 0.795026 1
1 0.74902 0.795026 1
1 0.74902 0.795026 1
1 0.74902 0.795026 1
1 0.74902 0.795026 1
1 0.74902 0.795026 1
1 0.74902 0.795026 1
1 0.74902 0.795026 1
1 0.74902 0.795026 1
1 0.74902 0.795026 1
1 0.74902 0.795026 1
1 0.74902 0.795026 1
1 0.74902 0.795026 1
1 0.74902 0.795026 1
1 0.74902 0.795026 1
1 0.74902 0.795026 1
1 0.74902 0.795026 1
1 0.74902 0.795026 1
1 0.74902 0.795026 1
1 0.74902 0.795026 1
1 0.74902 0.795026 1
1 0.74902 0.795026 1
1 0.74902 0.795026 1
1 0.74902 0.795026 1
1 0.74902 0.795026 1
1 0.74902 0.795026 1
1 0.74902 0.795026 1
1 0.74902 0.795026 1
1 0.74902 0.795026 1
1 0.74902 0.795026 1
1 0.74902 0.795026 1
1 0.74902 0.795026 1
1 0.74902 0.795026 1
1 0.74902 0.795026 1
1 0.74902 0.795026 1
1 0.74902 0.795026 1
1 0.74902 0.795026 1
1 0.74902 0.795026 1
1 0.74902 0.795026 1
1 0.74902 0.795026 1
1 0.74902 0.795026 1
1 0.74902 0.795026 1
1 0.74902 0.795026 1
1 0.74902 0.795026 1
1 0.74902 0.795026 1
1 0.74902 0.795026 1
1 0.74902 0.795026 1
1 0.74902 0.795026 1
1 0.74902 0.795026 1
1 0.74902 0.795026 1
1 0.74902 0.795026 1
1 0.74902 0.795026 1
1 0.74902 0.795026 1
1 0.74902 0.795026 1
1 0.74902 0.795026 1
1 0.74902 0.795026 1
1 0.74902 0.795026 1
1 0.74902 0.795026 1
1 0.74902 0.795026 1
1 0.74902 0.795026 1
1 0.74902 0.795026 1
1 0.74902 0.795026 1
1 0.74902 0.795026 1
1 0.74902 0.795026 1
1 0.74902 0.795026 1
1 0.74902 0.795026 1
1 0.74902 0.795026 1
1 0.74902 0.795026 1
1 0.74902 0.795026 1
1 0.74902 0.795026 1
1 0.74902 0.795026 1
1 0.74902 0.795026 1
1 0.74902 0.795026 1
1 0.74902 0.795026 1
1 0.74902 0.795026 1
1 0.74902 0.795026 1
1 0.74902 0.795026 1
1 0.74902 0.795026 1
1 0.74902 0.795026 1
1 0.74902 0.795026 1
1 0.74902 0.795026 1
1 0.74902 0.795026 1
1 0.74902 0.795026 1
1 0.74902 0.795026 1
1 0.74902 0.795026 1
1 0.74902 0.795026 1
1 0.74902 0.795026 1
1 0.74902 0.795026 1
1 0.74902 0.795026 1
1 0.74902 0.795026 1
1 0.74902 0.795026 1
1 0.74902 0.795026 1
1 0.74902 0.795026 1
1 0.74902 0.795026 1
1 0.74902 0.795026 1
1 0.74902 0.795026 1
1 0.74902 0.795026 1
1 0.74902 0.795026 1
1 0.74902 0.795026 1
1 0.74902 0.795026 1
1 0.74902 0.795026 1
1 0.74902 0.795026 1
1 0.74902 0.795026 1
1 0.74902 0.795026 1
1 0.74902 0.795026 1
1 0.74902 0.795026 1
1 0.74902 0.795026 1
1 0.74902 0.795026 1
1 0.74902 0.795026 1
1 0.74902 0.795026 1
1 0.74902 0.795026 1
1 0.74902 0.795026 1
1 0.74902 0.795026 1
1 0.74902 0.795026 1
1 0.74902 0.795026 1
1 0.74902 0.795026 1
1 0.74902 0.795026 1
1 0.74902 0.795026 1
1 0.74902 0.795026 1
1 0.74902 0.795026 1
1 0.74902 0.795026 1
1 0.74902 0.795026 1
1 0.74902 0.795026 1
1 0.74902 0.795026 1
1 0.74902 0.795026 1
1 0.74902 0.795026 1
1 0.74902 0.795026 1
1 0.74902 0.795026 1
1 0.74902 0.795026 1
1 0.74902 0.795026 1
1 0.74902 0.795026 1
1 0.74902 0.795026 1
1 0.74902 0.795026 1
1 0.74902 0.795026 1
1 0.74902 0.795026 1
1 0.74902 0.795026 1
1 0.74902 0.795026 1
1 0.74902 0.795026 1
1 0.74902 0.795026 1
1 0.74902 0.795026 1
1 0.74902 0.795026 1
1 0.74902 0.795026 1
1 0.74902 0.795026 1
1 0.74902 0.795026 1
1 0.74902 0.795026 1
1 0.74902 0.795026 1
1 0.74902 0.795026 1
1 0.74902 0.795026 1
1 0.74902 0.795026 1
1 0.74902 0.795026 1
1 0.74902 0.795026 1
1 0.74902 0.795026 1
1 0.74902 0.795026 1
1 0.74902 0.795026 1
1 0.74902 0.795026 1
1 0.74902 0.795026 1
1 0.74902 0.795026 1
1 0.74902 0.795026 1
1 0.74902 0.795026 1
1 0.74902 0.795026 1
1 0.74902 0.795026 1
1 0.74902 0.795026 1
1 0.74902 0.795026 1
1 0.74902 0.795026 1
1 0.74902 0.795026 1
1 0.74902 0.795026 1
1 0.74902 0.795026 1
1 0.74902 0.795026 1
1 0.74902 0.795026 1
1 0.74902 0.795026 1
1 0.74902 0.795026 1
1 0.74902 0.795026 1
1 0.74902 0.795026 1
1 0.74902 0.795026 1
1 0.74902 0.795026 1
1 0.74902 0.795026 1
1 0.74902 0.795026 1
1 0.74902 0.795026 1
1 0.74902 0.795026 1
1 0.74902 0.795026 1
1 0.74902 0.795026 1
1 0.74902 0.795026 1
1 0.74902 0.795026 1
1 0.74902 0.795026 1
1 0.74902 0.795026 1
1 0.74902 0.795026 1
1 0.74902 0.795026 1
1 0.74902 0.795026 1
1 0.74902 0.795026 1
1 0.74902 0.795026 1
1 0.74902 0.795026 1
1 0.74902 0.795026 1
1 0.74902 0.795026 1
1 0.74902 0.795026 1
1 0.74902 0.795026 1
1 0.74902 0.795026 1
1 0.74902 0.795026 1
1 0.74902 0.795026 1
1 0.74902 0.795026 1
1 0.74902 0.795026 1
1 0.74902 0.795026 1
1 0.74902 0.795026 1
1 0.74902 0.795026 1
1 0.74902 0.795026 1
1 0.74902 0.795026 1
1 0.74902 0.795026 1
1 0.74902 0.795026 1
1 0.74902 0.795026 1
1 0.74902 0.795026 1
1 0.74902 0.795026 1
1 0.74902 0.795026 1
1 0.74902 0.795026 1
1 0.74902 0.795026 1
1 0.74902 0.795026 1
1 0.74902 0.795026 1
1 0.74902 0.795026 1
1 0.74902 0.795026 1
1 0.74902 0.795026 1
1 0.74902 0.795026 1
1 0.74902 0.795026 1
1 0.74902 0.795026 1
1 0.74902 0.795026 1
1 0.74902 0.795026 1
1 0.74902 0.795026 1
1 0.74902 0.795026 1
1 0.74902 0.795026 1
1 0.74902 0.795026 1
1 0.74902 0.795026 1
1 0.74902 0.795026 1
1 0.74902 0.795026 1
1 0.74902 0.795026 1
1 0.74902 0.795026 1
1 0.74902 0.795026 1
1 0.74902 0.795026 1
1 0.74902 0.795026 1
1 0.74902 0.795026 1
1 0.74902 0.795026 1
1 0.74902 0.795026 1
1 0.74902 0.795026 1
1 0.74902 0.795026 1
1 0.74902 0.795026 1
1 0.74902 0.795026 1
1 0.74902 0.795026 1
1 0.74902 0.795026 1
1 0.74902 0.795026 1
1 0.74902 0.795026 1
1 0.74902 0.795026 1
1 0.74902 0.795026 1
1 0.74902 0.795026 1
1 0.74902 0.795026 1
1 0.74902 0.795026 1
1 0.74902 0.795026 1
1 0.74902 0.795026 1
1 0.74902 0.795026 1
1 0.74902 0.795026 1
1 0.74902 0.795026 1
1 0.74902 0.795026 1
1 0.74902 0.795026 1
1 0.74902 0.795026 1
1 0.74902 0.795026 1
1 0.74902 0.795026 1
1 0.74902 0.795026 1
1 0.74902 0.795026 1
1 0.74902 0.795026 1
1 0.74902 0.795026 1
1 0.74902 0.795026 1
1 0.74902 0.795026 1
1 0.74902 0.795026 1
1 0.74902 0.795026 1
1 0.74902 0.795026 1
1 0.74902 0.795026 1
1 0.74902 0.795026 1
1 0.74902 0.795026 1
1 0.74902 0.795026 1
1 0.74902 0.795026 1
1 0.74902 0.795026 1
1 0.74902 0.795026 1
1 0.74902 0.795026 1
1 0.74902 0.795026 1
1 0.74902 0.795026 1
1 0.74902 0.795026 1
1 0.74902 0.795026 1
1 0.74902 0.795026 1
1 0.74902 0.795026 1
1 0.74902 0.795026 1
1 0.74902 0.795026 1
1 0.74902 0.795026 1
1 0.74902 0.795026 1
1 0.74902 0.795026 1
1 0.74902 0.795026 1
1 0.74902 0.795026 1
1 0.74902 0.795026 1
1 0.74902 0.795026 1
1 0.74902 0.795026 1
1 0.74902 0.795026 1
1 0.74902 0.795026 1
1 0.74902 0.795026 1
1 0.74902 0.795026 1
1 0.74902 0.795026 1
1 0.74902 0.795026 1
1 0.74902 0.795026 1
1 0.74902 0.795026 1
1 0.74902 0.795026 1
1 0.74902 0.795026 1
1 0.74902 0.795026 1
1 0.74902 0.795026 1
1 0.74902 0.795026 1
1 0.74902 0.795026 1
1 0.74902 0.795026 1
1 0.74902 0.795026 1
1 0.74902 0.795026 1
1 0.74902 0.795026 1
1 0.74902 0.795026 1
1 0.74902 0.795026 1
1 0.74902 0.795026 1
1 0.74902 0.795026 1
1 0.74902 0.795026 1
1 0.74902 0.795026 1
1 0.74902 0.795026 1
1 0.74902 0.795026 1
1 0.74902 0.795026 1
1 0.74902 0.795026 1
1 0.74902 0.795026 1
1 0.74902 0.795026 1
1 0.74902 0.795026 1
1 0.74902 0.795026 1
1 0.74902 0.795026 1
1 0.74902 0.795026 1
1 0.74902 0.795026 1
1 0.74902 0.795026 1
1 0.74902 0.795026 1
1 0.74902 0.795026 1
1 0.74902 0.795026 1
1 0.74902 0.795026 1
1 0.74902 0.795026 1
1 0.74902 0.795026 1
1 0.74902 0.795026 1
1 0.74902 0.795026 1
1 0.74902 0.795026 1
1 0.74902 0.795026 1
1 0.74902 0.795026 1
1 0.74902 0.795026 1
1 0.74902 0.795026 1
1 0.74902 0.795026 1
1 0.74902 0.795026 1
1 0.74902 0.795026 1
1 0.74902 0.795026 1
1 0.74902 0.795026 1
1 0.74902 0.795026 1
1 0.74902 0.795026 1
1 0.74902 0.795026 1
1 0.74902 0.795026 1
1 0.74902 0.795026 1
1 0.74902 0.795026 1
1 0.74902 0.795026 1
1 0.74902 0.795026 1
1 0.74902 0.795026 1
1 0.74902 0.795026 1
1 0.74902 0.795026 1
1 0.74902 0.795026 1
1 0.74902 0.795026 1
1 0.74902 0.795026 1
1 0.74902 0.795026 1
1 0.74902 0.795026 1
1 0.74902 0.795026 1
1 0.74902 0.795026 1
1 0.74902 0.795026 1
1 0.74902 0.795026 1
1 0.74902 0.795026 1
1 0.74902 0.795026 1
1 0.74902 0.795026 1
1 0.74902 0.795026 1
1 0.74902 0.795026 1
1 0.74902 0.795026 1
1 0.74902 0.795026 1
1 0.74902 0.795026 1
1 0.74902 0.795026 1
1 0.74902 0.795026 1
1 0.74902 0.795026 1
1 0.74902 0.795026 1
1 0.74902 0.795026 1
1 0.74902 0.795026 1
1 0.74902 0.795026 1
1 0.74902 0.795026 1
1 0.74902 0.795026 1
1 0.74902 0.795026 1
1 0.74902 0.795026 1
1 0.74902 0.795026 1
1 0.74902 0.795026 1
1 0.74902 0.795026 1
1 0.74902 0.795026 1
1 0.74902 0.795026 1
1 0.74902 0.795026 1
1 0.74902 0.795026 1
1 0.74902 0.795026 1
1 0.74902 0.795026 1
1 0.74902 0.795026 1
1 0.74902 0.795026 1
1 0.74902 0.795026 1
1 0.74902 0.795026 1
1 0.74902 0.795026 1
1 0.74902 0.795026 1
1 0.74902 0.795026 1
1 0.74902 0.795026 1
1 0.74902 0.795026 1
1 0.74902 0.795026 1
1 0.74902 0.795026 1
1 0.74902 0.795026 1
1 0.74902 0.795026 1
1 0.74902 0.795026 1
1 0.74902 0.795026 1
1 0.74902 0.795026 1
1 0.74902 0.795026 1
1 0.74902 0.795026 1
1 0.74902 0.795026 1
1 0.74902 0.795026 1
1 0.74902 0.795026 1
1 0.74902 0.795026 1
1 0.74902 0.795026 1
1 0.74902 0.795026 1
1 0.74902 0.795026 1
1 0.74902 0.795026 1
1 0.74902 0.795026 1
1 0.74902 0.795026 1
1 0.74902 0.795026 1
1 0.74902 0.795026 1
1 0.74902 0.795026 1
1 0.74902 0.795026 1
1 0.74902 0.795026 1
1 0.74902 0.795026 1
1 0.74902 0.795026 1
1 0.74902 0.795026 1
1 0.74902 0.795026 1
1 0.74902 0.795026 1
1 0.74902 0.795026 1
1 0.74902 0.795026 1
1 0.74902 0.795026 1

