# vtk DataFile Version 3.0
Gocad TSurf to VTK
ASCII
DATASET POLYDATA
POINTS 145 float
21604000.000 4581230.000 -132.500
21604150.000 4581130.000 -230.000
21604100.000 4581460.000 -110.000
21604275.000 4581195.000 -267.500
21603127.461 4581532.938 420.843
21604025.000 4581065.000 -192.500
21603900.000 4581000.000 -155.000
21604175.000 4580982.500 -297.500
21604250.000 4581075.000 -300.000
21604100.000 4580890.000 -295.000
21604025.000 4580802.500 -245.000
21603875.000 4580885.000 -140.000
21603825.000 4580912.500 -108.750
21603950.000 4580715.000 -195.000
21603850.000 4580770.000 -125.000
21603875.000 4580627.500 -145.000
21603825.000 4580655.000 -110.000
21603750.000 4580825.000 -62.500
21603800.000 4580540.000 -95.000
21603625.000 4580580.000 -8.750
21603150.000 4581022.500 340.000
21603775.000 4580497.500 -102.500
21603650.000 4580510.000 -47.500
21603400.000 4580470.000 30.000
21603750.000 4580455.000 -110.000
21603725.000 4580412.500 -117.500
21603700.000 4580370.000 -125.000
21603275.000 4580610.000 148.750
21603150.000 4580750.000 267.500
21602941.297 4580694.305 339.311
21602976.383 4580739.398 342.849
21602926.445 4580675.211 337.813
21603007.789 4580779.758 346.016
21603026.328 4580803.594 347.886
21603061.172 4580853.047 351.889
21603110.531 4580906.422 355.813
21603106.969 4581025.516 368.403
21603106.016 4581048.016 370.791
21603105.180 4581070.461 373.170
21603650.000 4581007.500 10.000
21603098.734 4581215.141 388.536
21603094.375 4581313.094 398.940
21603089.938 4581412.609 409.509
21603088.438 4581446.359 413.093
21603107.891 4581489.523 416.956
21604325.000 4581167.500 -302.500
21604400.000 4581260.000 -305.000
21604250.000 4581545.000 -138.750
21604475.000 4581395.000 -285.000
21604000.000 4581712.500 36.250
21604550.000 4581715.000 -196.250
21603077.406 4582033.102 477.943
21603120.398 4582068.242 479.983
21603066.164 4582023.914 477.409
21603098.695 4581788.680 448.591
21603253.609 4582169.641 482.933
21603494.711 4582286.156 457.998
21603560.828 4582318.102 451.155
21603589.859 4582332.125 448.150
21603800.000 4582217.500 328.750
21603728.148 4582398.930 433.837
21604700.000 4581800.000 -225.000
21603762.992 4582427.797 430.906
21603797.234 4582436.508 426.922
21603925.000 4582392.500 363.750
21604650.000 4581980.000 -97.500
21603835.406 4582448.820 422.627
21603892.914 4582467.367 416.156
21604650.000 4582177.500 26.250
21603991.164 4582498.680 405.079
21604049.211 4582523.133 398.870
21604400.000 4582445.000 245.000
21604850.000 4582137.500 -58.750
21604122.648 4582560.563 391.378
21604188.977 4582577.641 383.673
21604234.648 4582596.820 378.784
21604330.945 4582624.875 367.780
21604600.000 4582530.000 237.500
21604408.516 4582653.102 359.232
21604532.453 4582701.078 345.735
21604800.000 4582650.000 237.500
21604875.000 4582327.500 45.000
21604610.023 4582729.766 337.213
21604725.398 4582762.977 319.566
21604757.734 4582772.563 314.629
21605100.000 4582780.000 221.250
21605100.000 4582420.000 -30.000
21604981.766 4582827.289 279.996
21605002.016 4582829.813 276.776
21605027.008 4582832.922 272.800
21605058.781 4582833.586 267.623
21605100.000 4582836.953 261.001
21605250.000 4582502.500 15.000
21605124.930 4582833.945 256.807
21605350.000 4582602.500 88.750
21605525.000 4582425.000 18.750
21605163.398 4582824.555 250.157
21605242.633 4582802.914 236.377
21605275.078 4582792.984 230.695
21605366.891 4582792.375 235.753
21605450.000 4582747.500 206.250
21605426.211 4582796.273 238.964
21605480.430 4582791.625 242.006
21605600.000 4582390.000 15.000
21605508.539 4582783.297 243.661
21605550.000 4582370.000 -16.250
21605500.000 4582350.000 -47.500
21605600.000 4582270.000 -55.000
21605550.000 4582280.000 -68.750
21605500.000 4582290.000 -82.500
21605450.000 4582330.000 -78.750
21605450.000 4582300.000 -96.250
21605400.000 4582310.000 -110.000
21605325.000 4582337.500 -90.000
21605375.000 4582292.500 -131.250
21605350.000 4582275.000 -152.500
21605325.000 4582257.500 -173.750
21605300.000 4582240.000 -195.000
21605125.000 4582332.500 -63.750
21605275.000 4582197.500 -187.500
21605250.000 4582155.000 -180.000
21605225.000 4582112.500 -172.500
21605200.000 4582070.000 -165.000
21605100.000 4582110.000 -120.000
21604900.000 4582190.000 -30.000
21605175.000 4582047.500 -176.250
21605150.000 4582025.000 -187.500
21605125.000 4582002.500 -198.750
21605100.000 4581980.000 -210.000
21605075.000 4581950.000 -227.500
21604900.000 4582045.000 -132.500
21605050.000 4581920.000 -245.000
21605025.000 4581890.000 -262.500
21605000.000 4581860.000 -280.000
21604925.000 4581845.000 -266.250
21605000.000 4581810.000 -303.750
21605000.000 4581760.000 -327.500
21604775.000 4581815.000 -238.750
21605000.000 4581710.000 -351.250
21605000.000 4581660.000 -375.000
21604850.000 4581560.000 -357.500
21604625.000 4581665.000 -245.000
21604700.000 4581460.000 -340.000
21604550.000 4581530.000 -265.000
21604550.000 4581360.000 -322.500

POLYGONS 192 768
3 141 61 50
3 18 16 17
3 45 46 3
3 80 77 81
3 96 93 94
3 70 69 68
3 37 36 20
3 33 32 27
3 112 111 110
3 43 42 6
3 105 103 95
3 74 73 71
3 77 76 71
3 85 80 86
3 139 61 140
3 6 5 0
3 77 71 72
3 33 27 28
3 93 92 94
3 46 48 47
3 112 110 92
3 78 76 77
3 51 2 49
3 42 39 6
3 66 63 64
3 110 106 95
3 88 87 85
3 6 9 5
3 35 34 19
3 132 131 130
3 13 14 15
3 86 80 81
3 59 58 49
3 136 134 137
3 100 99 94
3 122 118 81
3 129 128 72
3 52 51 49
3 140 61 141
3 64 65 68
3 126 123 124
3 122 121 118
3 95 94 92
3 46 2 3
3 130 72 68
3 12 6 39
3 102 103 104
3 11 6 12
3 65 134 68
3 144 143 48
3 95 103 100
3 38 20 39
3 122 123 125
3 128 124 72
3 73 70 71
3 25 24 22
3 14 11 12
3 111 109 110
3 140 141 142
3 29 23 27
3 29 31 23
3 118 86 81
3 46 144 48
3 48 143 50
3 97 96 94
3 60 59 61
3 91 90 85
3 7 8 1
3 20 17 39
3 38 37 20
3 2 46 47
3 5 7 1
3 123 126 125
3 1 8 3
3 91 85 92
3 10 11 13
3 106 105 95
3 13 11 14
3 40 38 39
3 102 101 100
3 84 80 85
3 0 1 2
3 49 47 50
3 133 132 130
3 34 28 19
3 2 4 0
3 94 95 100
3 87 84 85
3 67 66 64
3 113 92 86
3 117 116 86
3 50 61 59
3 131 129 130
3 116 115 113
3 86 92 85
3 75 74 71
3 67 64 68
3 50 59 49
3 93 91 92
3 60 58 59
3 114 112 113
3 23 22 19
3 80 79 77
3 142 141 143
3 99 98 94
3 9 7 5
3 54 4 2
3 127 126 124
3 58 57 49
3 51 53 2
3 82 79 80
3 10 6 11
3 101 99 100
3 89 88 85
3 8 45 3
3 61 137 65
3 142 143 144
3 28 27 19
3 17 14 12
3 135 133 134
3 63 62 61
3 26 25 22
3 0 44 6
3 90 89 85
3 9 6 10
3 119 117 118
3 17 12 39
3 110 95 92
3 108 105 106
3 18 17 19
3 136 135 134
3 107 103 105
3 123 81 124
3 109 106 110
3 121 120 118
3 139 138 137
3 108 107 105
3 124 128 127
3 109 108 106
3 71 68 72
3 1 3 2
3 53 54 2
3 2 47 49
3 84 83 80
3 47 48 50
3 123 122 81
3 21 19 22
3 30 29 27
3 138 136 137
3 18 15 16
3 102 100 103
3 56 55 49
3 64 61 65
3 120 119 118
3 129 72 130
3 143 141 50
3 44 43 6
3 23 26 22
3 117 86 118
3 133 130 68
3 115 114 113
3 113 112 92
3 21 18 19
3 69 67 68
3 36 35 19
3 1 0 5
3 15 14 16
3 62 60 61
3 61 139 137
3 55 52 49
3 4 44 0
3 83 82 80
3 32 30 27
3 81 77 72
3 98 97 94
3 34 33 28
3 42 41 39
3 124 81 72
3 63 61 64
3 16 14 17
3 24 21 22
3 36 19 20
3 134 133 68
3 134 65 137
3 70 68 71
3 116 113 86
3 79 78 77
3 27 23 19
3 41 40 39
3 57 56 49
3 17 20 19
3 76 75 71

POINT_DATA 145
COLOR_SCALARS GocadColor 4
0.392157 0.584314 0.929412 1
0.392157 0.584314 0.929412 1
0.392157 0.584314 0.929412 1
0.392157 0.584314 0.929412 1
0.392157 0.584314 0.929412 1
0.392157 0.584314 0.929412 1
0.392157 0.584314 0.929412 1
0.392157 0.584314 0.929412 1
0.392157 0.584314 0.929412 1
0.392157 0.584314 0.929412 1
0.392157 0.584314 0.929412 1
0.392157 0.584314 0.929412 1
0.392157 0.584314 0.929412 1
0.392157 0.584314 0.929412 1
0.392157 0.584314 0.929412 1
0.392157 0.584314 0.929412 1
0.392157 0.584314 0.929412 1
0.392157 0.584314 0.929412 1
0.392157 0.584314 0.929412 1
0.392157 0.584314 0.929412 1
0.392157 0.584314 0.929412 1
0.392157 0.584314 0.929412 1
0.392157 0.584314 0.929412 1
0.392157 0.584314 0.929412 1
0.392157 0.584314 0.929412 1
0.392157 0.584314 0.929412 1
0.392157 0.584314 0.929412 1
0.392157 0.584314 0.929412 1
0.392157 0.584314 0.929412 1
0.392157 0.584314 0.929412 1
0.392157 0.584314 0.929412 1
0.392157 0.584314 0.929412 1
0.392157 0.584314 0.929412 1
0.392157 0.584314 0.929412 1
0.392157 0.584314 0.929412 1
0.392157 0.584314 0.929412 1
0.392157 0.584314 0.929412 1
0.392157 0.584314 0.929412 1
0.392157 0.584314 0.929412 1
0.392157 0.584314 0.929412 1
0.392157 0.584314 0.929412 1
0.392157 0.584314 0.929412 1
0.392157 0.584314 0.929412 1
0.392157 0.584314 0.929412 1
0.392157 0.584314 0.929412 1
0.392157 0.584314 0.929412 1
0.392157 0.584314 0.929412 1
0.392157 0.584314 0.929412 1
0.392157 0.584314 0.929412 1
0.392157 0.584314 0.929412 1
0.392157 0.584314 0.929412 1
0.392157 0.584314 0.929412 1
0.392157 0.584314 0.929412 1
0.392157 0.584314 0.929412 1
0.392157 0.584314 0.929412 1
0.392157 0.584314 0.929412 1
0.392157 0.584314 0.929412 1
0.392157 0.584314 0.929412 1
0.392157 0.584314 0.929412 1
0.392157 0.584314 0.929412 1
0.392157 0.584314 0.929412 1
0.392157 0.584314 0.929412 1
0.392157 0.584314 0.929412 1
0.392157 0.584314 0.929412 1
0.392157 0.584314 0.929412 1
0.392157 0.584314 0.929412 1
0.392157 0.584314 0.929412 1
0.392157 0.584314 0.929412 1
0.392157 0.584314 0.929412 1
0.392157 0.584314 0.929412 1
0.392157 0.584314 0.929412 1
0.392157 0.584314 0.929412 1
0.392157 0.584314 0.929412 1
0.392157 0.584314 0.929412 1
0.392157 0.584314 0.929412 1
0.392157 0.584314 0.929412 1
0.392157 0.584314 0.929412 1
0.392157 0.584314 0.929412 1
0.392157 0.584314 0.929412 1
0.392157 0.584314 0.929412 1
0.392157 0.584314 0.929412 1
0.392157 0.584314 0.929412 1
0.392157 0.584314 0.929412 1
0.392157 0.584314 0.929412 1
0.392157 0.584314 0.929412 1
0.392157 0.584314 0.929412 1
0.392157 0.584314 0.929412 1
0.392157 0.584314 0.929412 1
0.392157 0.584314 0.929412 1
0.392157 0.584314 0.929412 1
0.392157 0.584314 0.929412 1
0.392157 0.584314 0.929412 1
0.392157 0.584314 0.929412 1
0.392157 0.584314 0.929412 1
0.392157 0.584314 0.929412 1
0.392157 0.584314 0.929412 1
0.392157 0.584314 0.929412 1
0.392157 0.584314 0.929412 1
0.392157 0.584314 0.929412 1
0.392157 0.584314 0.929412 1
0.392157 0.584314 0.929412 1
0.392157 0.584314 0.929412 1
0.392157 0.584314 0.929412 1
0.392157 0.584314 0.929412 1
0.392157 0.584314 0.929412 1
0.392157 0.584314 0.929412 1
0.392157 0.584314 0.929412 1
0.392157 0.584314 0.929412 1
0.392157 0.584314 0.929412 1
0.392157 0.584314 0.929412 1
0.392157 0.584314 0.929412 1
0.392157 0.584314 0.929412 1
0.392157 0.584314 0.929412 1
0.392157 0.584314 0.929412 1
0.392157 0.584314 0.929412 1
0.392157 0.584314 0.929412 1
0.392157 0.584314 0.929412 1
0.392157 0.584314 0.929412 1
0.392157 0.584314 0.929412 1
0.392157 0.584314 0.929412 1
0.392157 0.584314 0.929412 1
0.392157 0.584314 0.929412 1
0.392157 0.584314 0.929412 1
0.392157 0.584314 0.929412 1
0.392157 0.584314 0.929412 1
0.392157 0.584314 0.929412 1
0.392157 0.584314 0.929412 1
0.392157 0.584314 0.929412 1
0.392157 0.584314 0.929412 1
0.392157 0.584314 0.929412 1
0.392157 0.584314 0.929412 1
0.392157 0.584314 0.929412 1
0.392157 0.584314 0.929412 1
0.392157 0.584314 0.929412 1
0.392157 0.584314 0.929412 1
0.392157 0.584314 0.929412 1
0.392157 0.584314 0.929412 1
0.392157 0.584314 0.929412 1
0.392157 0.584314 0.929412 1
0.392157 0.584314 0.929412 1
0.392157 0.584314 0.929412 1
0.392157 0.584314 0.929412 1
0.392157 0.584314 0.929412 1
0.392157 0.584314 0.929412 1
0.392157 0.584314 0.929412 1

