# vtk DataFile Version 3.0
Gocad TSurf to VTK
ASCII
DATASET POLYDATA
POINTS 518 float
21614000.000 4583975.000 -62.500
21614100.000 4583990.000 -47.500
21614050.000 4583847.500 -78.750
21614250.000 4583892.500 75.000
21613900.000 4583955.000 -97.500
21614100.000 4584125.000 -23.750
21613900.000 4584092.500 -63.750
21614200.000 4584015.000 50.000
21614300.000 4584050.000 127.500
21614400.000 4584070.000 210.000
21614450.000 4583940.000 237.500
21614350.000 4584200.000 182.500
21614300.000 4584330.000 155.000
21614100.000 4584260.000 0.000
21614225.000 4584460.000 105.000
21614025.000 4584392.500 -25.000
21614275.000 4584472.500 151.250
21614250.000 4584615.000 147.500
21614150.000 4584590.000 55.000
21614225.000 4584757.500 143.750
21614025.000 4584702.500 -33.750
21614050.000 4584560.000 -22.500
21614200.000 4584900.000 140.000
21614000.000 4584850.000 -45.000
21613825.000 4584650.000 -82.500
21613950.000 4584525.000 -50.000
21613800.000 4584790.000 -100.000
21613700.000 4584750.000 -70.000
21613750.000 4584620.000 -60.000
21613850.000 4584510.000 -65.000
21613600.000 4584710.000 40.000
21613650.000 4584582.500 40.000
21613750.000 4584475.000 -15.000
21613400.000 4584660.000 40.000
21613450.000 4584532.500 47.500
21613600.000 4584430.000 55.000
21613200.000 4584450.000 -135.000
21613400.000 4584230.000 -45.000
21613100.000 4584560.000 -180.000
21612950.000 4584117.500 -420.000
21612550.000 4584145.000 -745.000
21612800.000 4583700.000 -445.000
21612200.000 4584320.000 -990.000
21611975.000 4583870.000 -1316.250
21612500.000 4583502.500 -648.750
21611225.000 4583900.000 -1998.750
21611450.000 4583507.500 -1731.250
21611000.000 4583960.000 -2190.000
21610900.000 4583810.000 -2306.250
21611000.000 4583960.000 -2205.000
21610700.000 4583510.000 -2508.750
21610600.000 4583360.000 -2610.000
21610475.000 4583237.500 -2620.000
21610550.000 4583082.500 -2343.750
21610225.000 4582992.500 -2640.000
21610100.000 4582870.000 -2650.000
21612700.000 4583430.000 -390.000
21613125.000 4583647.500 -102.500
21613200.000 4583540.000 30.000
21613275.000 4583685.000 22.500
21613400.000 4583840.000 15.000
21613300.000 4583560.000 30.000
21613500.000 4583600.000 -30.000
21613500.000 4583730.000 -22.500
21613600.000 4583630.000 -110.000
21613600.000 4583760.000 -65.000
21613550.000 4583875.000 -55.000
21613875.000 4583810.000 -113.750
21613750.000 4583915.000 -47.500
21613900.000 4583680.000 -165.000
21614100.000 4583720.000 -95.000
21614300.000 4583770.000 100.000
21614500.000 4583810.000 265.000
21613825.000 4584070.000 -11.250
21613675.000 4584032.500 11.250
21613800.000 4584200.000 40.000
21613525.000 4583997.500 -27.500
21613500.000 4584120.000 0.000
21613475.000 4584255.000 10.000
21613450.000 4584390.000 20.000
21613600.000 4584150.000 70.000
21613550.000 4584277.500 62.500
21613775.000 4584337.500 12.500
21613900.000 4584230.000 -30.000
21613875.000 4584370.000 -47.500
21613500.000 4584405.000 55.000
21610500.000 4575510.000 -1683.750
21611200.000 4576360.000 -1310.000
21610000.000 4575330.000 -1925.000
21610500.000 4576350.000 -1402.500
21610050.000 4575077.500 -1917.500
21611000.000 4575690.000 -1442.500
21612000.000 4576050.000 -960.000
21610100.000 4574825.000 -1910.000
21610150.000 4574572.500 -1902.500
21610050.000 4575077.500 -1917.500
21610150.000 4574572.500 -1902.500
21610200.000 4574320.000 -1895.000
21611400.000 4574657.500 -1490.000
21610650.000 4574110.000 -1832.500
21611900.000 4575410.000 -1157.500
21611850.000 4575090.000 -1256.250
21612200.000 4575735.000 -1005.000
21612050.000 4575287.500 -1172.500
21612550.000 4576322.500 -807.500
21612600.000 4576700.000 -655.000
21613075.000 4576855.000 -923.750
21611975.000 4576267.500 -960.000
21612250.000 4576810.000 -807.500
21611900.000 4576980.000 -950.000
21611375.000 4576775.000 -1093.750
21612225.000 4577037.500 -876.250
21612350.000 4577730.000 -857.500
21612350.000 4576925.000 -802.500
21612475.000 4576812.500 -728.750
21612450.000 4576995.000 -787.500
21612750.000 4577017.500 -737.500
21613200.000 4577670.000 -920.000
21613450.000 4577177.500 -912.500
21612900.000 4577790.000 -1060.000
21612600.000 4577930.000 -920.000
21613650.000 4578210.000 -686.250
21613550.000 4577770.000 -748.750
21613775.000 4578317.500 -682.500
21613925.000 4578092.500 -737.500
21613150.000 4578370.000 -710.000
21613600.000 4579020.000 -305.000
21612600.000 4578120.000 -842.500
21612600.000 4578310.000 -765.000
21612425.000 4577977.500 -811.250
21613425.000 4579017.500 -388.750
21613750.000 4579447.500 -222.500
21612675.000 4578485.000 -733.750
21613075.000 4579012.500 -556.250
21611625.000 4578107.500 -1072.500
21611600.000 4579090.000 -960.000
21610175.000 4576765.000 -1415.000
21610500.000 4578120.000 -1257.500
21609800.000 4576340.000 -1495.000
21609825.000 4576545.000 -1505.000
21610325.000 4576485.000 -1361.250
21610150.000 4576345.000 -1448.750
21609850.000 4576087.500 -1602.500
21609850.000 4576087.500 -1602.500
21609825.000 4576542.500 -1505.000
21609875.000 4576947.500 -1525.000
21609900.000 4577150.000 -1535.000
21609850.000 4576745.000 -1515.000
21609850.000 4577412.500 -1486.250
21609800.000 4577680.000 -1437.500
21609800.000 4577675.000 -1437.500
21609750.000 4577937.500 -1388.750
21609700.000 4578200.000 -1340.000
21610650.000 4579135.000 -1325.000
21609700.000 4578935.000 -1602.500
21609700.000 4579180.000 -1690.000
21609700.000 4578935.000 -1602.500
21611700.000 4579790.000 -865.000
21611200.000 4579850.000 -1018.750
21612900.000 4580502.500 -250.000
21609700.000 4579392.500 -1637.500
21609700.000 4579605.000 -1585.000
21609700.000 4579392.500 -1637.500
21609700.000 4579817.500 -1532.500
21609700.000 4580030.000 -1480.000
21613300.000 4580740.000 -45.000
21610325.000 4580297.500 -1250.000
21612475.000 4581010.000 -431.250
21609775.000 4580255.000 -1455.000
21609850.000 4580480.000 -1430.000
21609775.000 4580255.000 -1455.000
21609925.000 4580705.000 -1405.000
21610000.000 4580930.000 -1380.000
21611650.000 4581197.500 -782.500
21610000.000 4581077.500 -1397.500
21610000.000 4581070.000 -1397.500
21611100.000 4581295.000 -1005.000
21612325.000 4581260.000 -531.250
21610000.000 4581210.000 -1415.000
21610000.000 4581352.500 -1432.500
21610000.000 4581490.000 -1450.000
21610000.000 4581350.000 -1432.500
21612700.000 4581740.000 -445.000
21612575.000 4581580.000 -473.750
21610650.000 4581685.000 -1187.500
21612650.000 4582005.000 -422.500
21610000.000 4581605.000 -1495.000
21610000.000 4581835.000 -1585.000
21610000.000 4581605.000 -1495.000
21610000.000 4581720.000 -1540.000
21610000.000 4581950.000 -1630.000
21612475.000 4582375.000 -450.000
21610525.000 4582135.000 -1372.500
21612225.000 4582585.000 -550.000
21610000.000 4582027.500 -1668.750
21610000.000 4582105.000 -1707.500
21610000.000 4582182.500 -1746.250
21612100.000 4582690.000 -600.000
21613100.000 4582880.000 -125.000
21610000.000 4582260.000 -1785.000
21611600.000 4582735.000 -1112.500
21612550.000 4583245.000 -442.500
21610025.000 4582412.500 -2001.250
21611100.000 4582780.000 -1625.000
21610025.000 4582412.500 -2001.250
21610050.000 4582565.000 -2217.500
21610600.000 4582825.000 -2137.500
21610075.000 4582717.500 -2433.750
21610075.000 4582717.500 -2433.750
21610100.000 4582870.000 -2650.000
21612700.000 4583430.000 -390.000
21612900.000 4583155.000 -257.500
21613200.000 4583540.000 30.000
21613275.000 4583397.500 12.500
21613200.000 4583075.000 -22.500
21613300.000 4583560.000 30.000
21613500.000 4583442.500 -32.500
21613500.000 4583285.000 -35.000
21613500.000 4583600.000 -30.000
21613625.000 4583477.500 -121.250
21613600.000 4583310.000 -92.500
21613600.000 4583630.000 -110.000
21613950.000 4583535.000 -176.250
21613800.000 4583350.000 -160.000
21613900.000 4583680.000 -165.000
21614100.000 4583565.000 -123.750
21614100.000 4583410.000 -152.500
21614100.000 4583720.000 -95.000
21614175.000 4583577.500 -81.250
21614300.000 4583770.000 100.000
21614325.000 4583615.000 65.000
21614250.000 4583435.000 -67.500
21614500.000 4583652.500 216.250
21614500.000 4583495.000 167.500
21614500.000 4583810.000 265.000
21614350.000 4583460.000 30.000
21614500.000 4583337.500 118.750
21614450.000 4583327.500 77.500
21614325.000 4583292.500 -53.750
21614500.000 4583180.000 70.000
21614400.000 4583150.000 -40.000
21614100.000 4583100.000 -210.000
21614500.000 4583012.500 38.750
21614425.000 4582990.000 -43.750
21614200.000 4582952.500 -171.250
21614500.000 4582845.000 7.500
21614450.000 4582830.000 -47.500
21614500.000 4582677.500 -23.750
21614500.000 4582510.000 -55.000
21614100.000 4582460.000 -290.000
21614075.000 4582612.500 -291.250
21614300.000 4582180.000 -265.000
21614050.000 4582305.000 -285.000
21614525.000 4582360.000 -76.250
21614500.000 4582205.000 -140.000
21614575.000 4582365.000 -48.750
21614650.000 4582220.000 -42.500
21614575.000 4582060.000 -118.750
21614500.000 4582052.500 -182.500
21614725.000 4582075.000 -36.250
21614600.000 4581910.000 -140.000
21614800.000 4581930.000 -30.000
21614500.000 4581900.000 -225.000
21614575.000 4581750.000 -132.500
21614400.000 4582040.000 -245.000
21614200.000 4581870.000 -180.000
21614275.000 4581720.000 -162.500
21614175.000 4582017.500 -211.250
21613950.000 4581997.500 -85.000
21614000.000 4582150.000 -172.500
21614000.000 4581860.000 -40.000
21613800.000 4581982.500 -25.000
21614075.000 4581707.500 -57.500
21613850.000 4581690.000 33.750
21614150.000 4581555.000 -75.000
21614250.000 4581560.000 -145.000
21614000.000 4581550.000 -12.500
21614000.000 4581395.000 1.250
21613900.000 4581540.000 27.500
21613750.000 4581525.000 82.500
21613700.000 4581210.000 125.000
21613575.000 4581665.000 31.250
21613600.000 4581820.000 0.000
21613550.000 4581510.000 62.500
21613425.000 4581650.000 -21.250
21613475.000 4581350.000 76.250
21613525.000 4581100.000 106.250
21613450.000 4581500.000 27.500
21613300.000 4581640.000 -87.500
21613400.000 4581800.000 -70.000
21612850.000 4581895.000 -340.000
21612850.000 4581450.000 -292.500
21613100.000 4581320.000 -122.500
[...]
POINT_DATA 518
COLOR_SCALARS GocadColor 4
0.0930037 0.0930037 0.439216 1
0.0930037 0.0930037 0.439216 1
0.0930037 0.0930037 0.439216 1
0.0930037 0.0930037 0.439216 1
0.0930037 0.0930037 0.439216 1
0.0930037 0.0930037 0.439216 1
0.0930037 0.0930037 0.439216 1
0.0930037 0.0930037 0.439216 1
0.0930037 0.0930037 0.439216 1
0.0930037 0.0930037 0.439216 1
0.0930037 0.0930037 0.439216 1
0.0930037 0.0930037 0.439216 1
0.0930037 0.0930037 0.439216 1
0.0930037 0.0930037 0.439216 1
0.0930037 0.0930037 0.439216 1
0.0930037 0.0930037 0.439216 1
0.0930037 0.0930037 0.439216 1
0.0930037 0.0930037 0.439216 1
0.0930037 0.0930037 0.439216 1
0.0930037 0.0930037 0.439216 1
0.0930037 0.0930037 0.439216 1
0.0930037 0.0930037 0.439216 1
0.0930037 0.0930037 0.439216 1
0.0930037 0.0930037 0.439216 1
0.0930037 0.0930037 0.439216 1
0.0930037 0.0930037 0.439216 1
0.0930037 0.0930037 0.439216 1
0.0930037 0.0930037 0.439216 1
0.0930037 0.0930037 0.439216 1
0.0930037 0.0930037 0.439216 1
0.0930037 0.0930037 0.439216 1
0.0930037 0.0930037 0.439216 1
0.0930037 0.0930037 0.439216 1
0.0930037 0.0930037 0.439216 1
0.0930037 0.0930037 0.439216 1
0.0930037 0.0930037 0.439216 1
0.0930037 0.0930037 0.439216 1
0.0930037 0.0930037 0.439216 1
0.0930037 0.0930037 0.439216 1
0.0930037 0.0930037 0.439216 1
0.0930037 0.0930037 0.439216 1
0.0930037 0.0930037 0.439216 1
0.0930037 0.0930037 0.439216 1
0.0930037 0.0930037 0.439216 1
0.0930037 0.0930037 0.439216 1
0.0930037 0.0930037 0.439216 1
0.0930037 0.0930037 0.439216 1
0.0930037 0.0930037 0.439216 1
0.0930037 0.0930037 0.439216 1
0.0930037 0.0930037 0.439216 1
0.0930037 0.0930037 0.439216 1
0.0930037 0.0930037 0.439216 1
0.0930037 0.0930037 0.439216 1
0.0930037 0.0930037 0.439216 1
0.0930037 0.0930037 0.439216 1
0.0930037 0.0930037 0.439216 1
0.0930037 0.0930037 0.439216 1
0.0930037 0.0930037 0.439216 1
0.0930037 0.0930037 0.439216 1
0.0930037 0.0930037 0.439216 1
0.0930037 0.0930037 0.439216 1
0.0930037 0.0930037 0.439216 1
0.0930037 0.0930037 0.439216 1
0.0930037 0.0930037 0.439216 1
0.0930037 0.0930037 0.439216 1
0.0930037 0.0930037 0.439216 1
0.0930037 0.0930037 0.439216 1
0.0930037 0.0930037 0.439216 1
0.0930037 0.0930037 0.439216 1
0.0930037 0.0930037 0.439216 1
0.0930037 0.0930037 0.439216 1
0.0930037 0.0930037 0.439216 1
0.0930037 0.0930037 0.439216 1
0.0930037 0.0930037 0.439216 1
0.0930037 0.0930037 0.439216 1
0.0930037 0.0930037 0.439216 1
0.0930037 0.0930037 0.439216 1
0.0930037 0.0930037 0.439216 1
0.0930037 0.0930037 0.439216 1
0.0930037 0.0930037 0.439216 1
0.0930037 0.0930037 0.439216 1
0.0930037 0.0930037 0.439216 1
0.0930037 0.0930037 0.439216 1
0.0930037 0.0930037 0.439216 1
0.0930037 0.0930037 0.439216 1
0.0930037 0.0930037 0.439216 1
0.0930037 0.0930037 0.439216 1
0.0930037 0.0930037 0.439216 1
0.0930037 0.0930037 0.439216 1
0.0930037 0.0930037 0.439216 1
0.0930037 0.0930037 0.439216 1
0.0930037 0.0930037 0.439216 1
0.0930037 0.0930037 0.439216 1
0.0930037 0.0930037 0.439216 1
0.0930037 0.0930037 0.439216 1
0.0930037 0.0930037 0.439216 1
0.0930037 0.0930037 0.439216 1
0.0930037 0.0930037 0.439216 1
0.0930037 0.0930037 0.439216 1
0.0930037 0.0930037 0.439216 1
0.0930037 0.0930037 0.439216 1
0.0930037 0.0930037 0.439216 1
0.0930037 0.0930037 0.439216 1
0.0930037 0.0930037 0.439216 1
0.0930037 0.0930037 0.439216 1
0.0930037 0.0930037 0.439216 1
0.0930037 0.0930037 0.439216 1
0.0930037 0.0930037 0.439216 1
0.0930037 0.0930037 0.439216 1
0.0930037 0.0930037 0.439216 1
0.0930037 0.0930037 0.439216 1
0.0930037 0.0930037 0.439216 1
0.0930037 0.0930037 0.439216 1
0.0930037 0.0930037 0.439216 1
0.0930037 0.0930037 0.439216 1
0.0930037 0.0930037 0.439216 1
0.0930037 0.0930037 0.439216 1
0.0930037 0.0930037 0.439216 1
0.0930037 0.0930037 0.439216 1
0.0930037 0.0930037 0.439216 1
0.0930037 0.0930037 0.439216 1
0.0930037 0.0930037 0.439216 1
0.0930037 0.0930037 0.439216 1
0.0930037 0.0930037 0.439216 1
0.0930037 0.0930037 0.439216 1
0.0930037 0.0930037 0.439216 1
0.0930037 0.0930037 0.439216 1
0.0930037 0.0930037 0.439216 1
0.0930037 0.0930037 0.439216 1
0.0930037 0.0930037 0.439216 1
0.0930037 0.0930037 0.439216 1
0.0930037 0.0930037 0.439216 1
0.0930037 0.0930037 0.439216 1
0.0930037 0.0930037 0.439216 1
0.0930037 0.0930037 0.439216 1
0.0930037 0.0930037 0.439216 1
0.0930037 0.0930037 0.439216 1
0.0930037 0.0930037 0.439216 1
0.0930037 0.0930037 0.439216 1
0.0930037 0.0930037 0.439216 1
0.0930037 0.0930037 0.439216 1
0.0930037 0.0930037 0.439216 1
0.0930037 0.0930037 0.439216 1
0.0930037 0.0930037 0.439216 1
0.0930037 0.0930037 0.439216 1
0.0930037 0.0930037 0.439216 1
0.0930037 0.0930037 0.439216 1
0.0930037 0.0930037 0.439216 1
0.0930037 0.0930037 0.439216 1
0.0930037 0.0930037 0.439216 1
0.0930037 0.0930037 0.439216 1
0.0930037 0.0930037 0.439216 1
0.0930037 0.0930037 0.439216 1
0.0930037 0.0930037 0.439216 1
0.0930037 0.0930037 0.439216 1
0.0930037 0.0930037 0.439216 1
0.0930037 0.0930037 0.439216 1
0.0930037 0.0930037 0.439216 1
0.0930037 0.0930037 0.439216 1
0.0930037 0.0930037 0.439216 1
0.0930037 0.0930037 0.439216 1
0.0930037 0.0930037 0.439216 1
0.0930037 0.0930037 0.439216 1
0.0930037 0.0930037 0.439216 1
0.0930037 0.0930037 0.439216 1
0.0930037 0.0930037 0.439216 1
0.0930037 0.0930037 0.439216 1
0.0930037 0.0930037 0.439216 1
0.0930037 0.0930037 0.439216 1
0.0930037 0.0930037 0.439216 1
0.0930037 0.0930037 0.439216 1
0.0930037 0.0930037 0.439216 1
0.0930037 0.0930037 0.439216 1
0.0930037 0.0930037 0.439216 1
0.0930037 0.0930037 0.439216 1
0.0930037 0.0930037 0.439216 1
0.0930037 0.0930037 0.439216 1
0.0930037 0.0930037 0.439216 1
0.0930037 0.0930037 0.439216 1
0.0930037 0.0930037 0.439216 1
0.0930037 0.0930037 0.439216 1
0.0930037 0.0930037 0.439216 1
0.0930037 0.0930037 0.439216 1
0.0930037 0.0930037 0.439216 1
0.0930037 0.0930037 0.439216 1
0.0930037 0.0930037 0.439216 1
0.0930037 0.0930037 0.439216 1
0.0930037 0.0930037 0.439216 1
0.0930037 0.0930037 0.439216 1
0.0930037 0.0930037 0.439216 1
0.0930037 0.0930037 0.439216 1
0.0930037 0.0930037 0.439216 1
0.0930037 0.0930037 0.439216 1
0.0930037 0.0930037 0.439216 1
0.0930037 0.0930037 0.439216 1
0.0930037 0.0930037 0.439216 1
0.0930037 0.0930037 0.439216 1
0.0930037 0.0930037 0.439216 1
0.0930037 0.0930037 0.439216 1
0.0930037 0.0930037 0.439216 1
0.0930037 0.0930037 0.439216 1
0.0930037 0.0930037 0.439216 1
0.0930037 0.0930037 0.439216 1
0.0930037 0.0930037 0.439216 1
0.0930037 0.0930037 0.439216 1
0.0930037 0.0930037 0.439216 1
0.0930037 0.0930037 0.439216 1
0.0930037 0.0930037 0.439216 1
0.0930037 0.0930037 0.439216 1
0.0930037 0.0930037 0.439216 1
0.0930037 0.0930037 0.439216 1
0.0930037 0.0930037 0.439216 1
0.0930037 0.0930037 0.439216 1
0.0930037 0.0930037 0.439216 1
0.0930037 0.0930037 0.439216 1
0.0930037 0.0930037 0.439216 1
0.0930037 0.0930037 0.439216 1
0.0930037 0.0930037 0.439216 1
0.0930037 0.0930037 0.439216 1
0.0930037 0.0930037 0.439216 1
0.0930037 0.0930037 0.439216 1
0.0930037 0.0930037 0.439216 1
0.0930037 0.0930037 0.439216 1
0.0930037 0.0930037 0.439216 1
0.0930037 0.0930037 0.439216 1
0.0930037 0.0930037 0.439216 1
0.0930037 0.0930037 0.439216 1
0.0930037 0.0930037 0.439216 1
0.0930037 0.0930037 0.439216 1
0.0930037 0.0930037 0.439216 1
0.0930037 0.0930037 0.439216 1
0.0930037 0.0930037 0.439216 1
0.0930037 0.0930037 0.439216 1
0.0930037 0.0930037 0.439216 1
0.0930037 0.0930037 0.439216 1
0.0930037 0.0930037 0.439216 1
0.0930037 0.0930037 0.439216 1
0.0930037 0.0930037 0.439216 1
0.0930037 0.0930037 0.439216 1
0.0930037 0.0930037 0.439216 1
0.0930037 0.0930037 0.439216 1
0.0930037 0.0930037 0.439216 1
0.0930037 0.0930037 0.439216 1
0.0930037 0.0930037 0.439216 1
0.0930037 0.0930037 0.439216 1
0.0930037 0.0930037 0.439216 1
0.0930037 0.0930037 0.439216 1
0.0930037 0.0930037 0.439216 1
0.0930037 0.0930037 0.439216 1
0.0930037 0.0930037 0.439216 1
0.0930037 0.0930037 0.439216 1
0.0930037 0.0930037 0.439216 1
0.0930037 0.0930037 0.439216 1
0.0930037 0.0930037 0.439216 1
0.0930037 0.0930037 0.439216 1
0.0930037 0.0930037 0.439216 1
0.0930037 0.0930037 0.439216 1
0.0930037 0.0930037 0.439216 1
0.0930037 0.0930037 0.439216 1
0.0930037 0.0930037 0.439216 1
0.0930037 0.0930037 0.439216 1
0.0930037 0.0930037 0.439216 1
0.0930037 0.0930037 0.439216 1
0.0930037 0.0930037 0.439216 1
0.0930037 0.0930037 0.439216 1
0.0930037 0.0930037 0.439216 1
0.0930037 0.0930037 0.439216 1
0.0930037 0.0930037 0.439216 1
0.0930037 0.0930037 0.439216 1
0.0930037 0.0930037 0.439216 1
0.0930037 0.0930037 0.439216 1
0.0930037 0.0930037 0.439216 1
0.0930037 0.0930037 0.439216 1
0.0930037 0.0930037 0.439216 1
0.0930037 0.0930037 0.439216 1
0.0930037 0.0930037 0.439216 1
0.0930037 0.0930037 0.439216 1
0.0930037 0.0930037 0.439216 1
0.0930037 0.0930037 0.439216 1
0.0930037 0.0930037 0.439216 1
0.0930037 0.0930037 0.439216 1
0.0930037 0.0930037 0.439216 1
0.0930037 0.0930037 0.439216 1
0.0930037 0.0930037 0.439216 1
0.0930037 0.0930037 0.439216 1
0.0930037 0.0930037 0.439216 1
0.0930037 0.0930037 0.439216 1
0.0930037 0.0930037 0.439216 1
0.0930037 0.0930037 0.439216 1
0.0930037 0.0930037 0.439216 1
0.0930037 0.0930037 0.439216 1
0.0930037 0.0930037 0.439216 1
0.0930037 0.0930037 0.439216 1
0.0930037 0.0930037 0.439216 1
0.0930037 0.0930037 0.439216 1
0.0930037 0.0930037 0.439216 1
0.0930037 0.0930037 0.439216 1
0.0930037 0.0930037 0.439216 1
0.0930037 0.0930037 0.439216 1
0.0930037 0.0930037 0.439216 1
0.0930037 0.0930037 0.439216 1
0.0930037 0.0930037 0.439216 1
0.0930037 0.0930037 0.439216 1
0.0930037 0.0930037 0.439216 1
0.0930037 0.0930037 0.439216 1
0.0930037 0.0930037 0.439216 1
0.0930037 0.0930037 0.439216 1
0.0930037 0.0930037 0.439216 1
0.0930037 0.0930037 0.439216 1
0.0930037 0.0930037 0.439216 1
0.0930037 0.0930037 0.439216 1
0.0930037 0.0930037 0.439216 1
0.0930037 0.0930037 0.439216 1
0.0930037 0.0930037 0.439216 1
0.0930037 0.0930037 0.439216 1
0.0930037 0.0930037 0.439216 1
0.0930037 0.0930037 0.439216 1
0.0930037 0.0930037 0.439216 1
0.0930037 0.0930037 0.439216 1
0.0930037 0.0930037 0.439216 1
0.0930037 0.0930037 0.439216 1
0.0930037 0.0930037 0.439216 1
0.0930037 0.0930037 0.439216 1
0.0930037 0.0930037 0.439216 1
0.0930037 0.0930037 0.439216 1
0.0930037 0.0930037 0.439216 1
0.0930037 0.0930037 0.439216 1
0.0930037 0.0930037 0.439216 1
0.0930037 0.0930037 0.439216 1
0.0930037 0.0930037 0.439216 1
0.0930037 0.0930037 0.439216 1
0.0930037 0.0930037 0.439216 1
0.0930037 0.0930037 0.439216 1
0.0930037 0.0930037 0.439216 1
0.0930037 0.0930037 0.439216 1
0.0930037 0.0930037 0.439216 1
0.0930037 0.0930037 0.439216 1
0.0930037 0.0930037 0.439216 1
0.0930037 0.0930037 0.439216 1
0.0930037 0.0930037 0.439216 1
0.0930037 0.0930037 0.439216 1
0.0930037 0.0930037 0.439216 1
0.0930037 0.0930037 0.439216 1
0.0930037 0.0930037 0.439216 1
0.0930037 0.0930037 0.439216 1
0.0930037 0.0930037 0.439216 1
0.0930037 0.0930037 0.439216 1
0.0930037 0.0930037 0.439216 1
0.0930037 0.0930037 0.439216 1
0.0930037 0.0930037 0.439216 1
0.0930037 0.0930037 0.439216 1
0.0930037 0.0930037 0.439216 1
0.0930037 0.0930037 0.439216 1
0.0930037 0.0930037 0.439216 1
0.0930037 0.0930037 0.439216 1
0.0930037 0.0930037 0.439216 1
0.0930037 0.0930037 0.439216 1
0.0930037 0.0930037 0.439216 1
0.0930037 0.0930037 0.439216 1
0.0930037 0.0930037 0.439216 1
0.0930037 0.0930037 0.439216 1
0.0930037 0.0930037 0.439216 1
0.0930037 0.0930037 0.439216 1
0.0930037 0.0930037 0.439216 1
0.0930037 0.0930037 0.439216 1
0.0930037 0.0930037 0.439216 1
0.0930037 0.0930037 0.439216 1
0.0930037 0.0930037 0.439216 1
0.0930037 0.0930037 0.439216 1
0.0930037 0.0930037 0.439216 1
0.0930037 0.0930037 0.439216 1
0.0930037 0.0930037 0.439216 1
0.0930037 0.0930037 0.439216 1
0.0930037 0.0930037 0.439216 1
0.0930037 0.0930037 0.439216 1
0.0930037 0.0930037 0.439216 1
0.0930037 0.0930037 0.439216 1
0.0930037 0.0930037 0.439216 1
0.0930037 0.0930037 0.439216 1
0.0930037 0.0930037 0.439216 1
0.0930037 0.0930037 0.439216 1
0.0930037 0.0930037 0.439216 1
0.0930037 0.0930037 0.439216 1
0.0930037 0.0930037 0.439216 1
0.0930037 0.0930037 0.439216 1
0.0930037 0.0930037 0.439216 1
0.0930037 0.0930037 0.439216 1
0.0930037 0.0930037 0.439216 1
0.0930037 0.0930037 0.439216 1
0.0930037 0.0930037 0.439216 1
0.0930037 0.0930037 0.439216 1
0.0930037 0.0930037 0.439216 1
0.0930037 0.0930037 0.439216 1
0.0930037 0.0930037 0.439216 1
0.0930037 0.0930037 0.439216 1
0.0930037 0.0930037 0.439216 1
0.0930037 0.0930037 0.439216 1
0.0930037 0.0930037 0.439216 1
0.0930037 0.0930037 0.439216 1
0.0930037 0.0930037 0.439216 1
0.0930037 0.0930037 0.439216 1
0.0930037 0.0930037 0.439216 1
0.0930037 0.0930037 0.439216 1
0.0930037 0.0930037 0.439216 1
0.0930037 0.0930037 0.439216 1
0.0930037 0.0930037 0.439216 1
0.0930037 0.0930037 0.439216 1
0.0930037 0.0930037 0.439216 1
0.0930037 0.0930037 0.439216 1
0.0930037 0.0930037 0.439216 1
0.0930037 0.0930037 0.439216 1
0.0930037 0.0930037 0.439216 1
0.0930037 0.0930037 0.439216 1
0.0930037 0.0930037 0.439216 1
0.0930037 0.0930037 0.439216 1
0.0930037 0.0930037 0.439216 1
0.0930037 0.0930037 0.439216 1
0.0930037 0.0930037 0.439216 1
0.0930037 0.0930037 0.439216 1
0.0930037 0.0930037 0.439216 1
0.0930037 0.0930037 0.439216 1
0.0930037 0.0930037 0.439216 1
0.0930037 0.0930037 0.439216 1
0.0930037 0.0930037 0.439216 1
0.0930037 0.0930037 0.439216 1
0.0930037 0.0930037 0.439216 1
0.0930037 0.0930037 0.439216 1
0.0930037 0.0930037 0.439216 1
0.0930037 0.0930037 0.439216 1
0.0930037 0.0930037 0.439216 1
0.0930037 0.0930037 0.439216 1
0.0930037 0.0930037 0.439216 1
0.0930037 0.0930037 0.439216 1
0.0930037 0.0930037 0.439216 1
0.0930037 0.0930037 0.439216 1
0.0930037 0.0930037 0.439216 1
0.0930037 0.0930037 0.439216 1
0.0930037 0.0930037 0.439216 1
0.0930037 0.0930037 0.439216 1
0.0930037 0.0930037 0.439216 1
0.0930037 0.0930037 0.439216 1
0.0930037 0.0930037 0.439216 1
0.0930037 0.0930037 0.439216 1
0.0930037 0.0930037 0.439216 1
0.0930037 0.0930037 0.439216 1
0.0930037 0.0930037 0.439216 1
0.0930037 0.0930037 0.439216 1
0.0930037 0.0930037 0.439216 1
0.0930037 0.0930037 0.439216 1
0.0930037 0.0930037 0.439216 1
0.0930037 0.0930037 0.439216 1
0.0930037 0.0930037 0.439216 1
0.0930037 0.0930037 0.439216 1
0.0930037 0.0930037 0.439216 1
0.0930037 0.0930037 0.439216 1
0.0930037 0.0930037 0.439216 1
0.0930037 0.0930037 0.439216 1
0.0930037 0.0930037 0.439216 1
0.0930037 0.0930037 0.439216 1
0.0930037 0.0930037 0.439216 1
0.0930037 0.0930037 0.439216 1
0.0930037 0.0930037 0.439216 1
0.0930037 0.0930037 0.439216 1
0.0930037 0.0930037 0.439216 1
0.0930037 0.0930037 0.439216 1
0.0930037 0.0930037 0.439216 1
0.0930037 0.0930037 0.439216 1
0.0930037 0.0930037 0.439216 1
0.0930037 0.0930037 0.439216 1
0.0930037 0.0930037 0.439216 1
0.0930037 0.0930037 0.439216 1
0.0930037 0.0930037 0.439216 1
0.0930037 0.0930037 0.439216 1
0.0930037 0.0930037 0.439216 1
0.0930037 0.0930037 0.439216 1
0.0930037 0.0930037 0.439216 1
0.0930037 0.0930037 0.439216 1
0.0930037 0.0930037 0.439216 1
0.0930037 0.0930037 0.439216 1
0.0930037 0.0930037 0.439216 1
0.0930037 0.0930037 0.439216 1
0.0930037 0.0930037 0.439216 1
0.0930037 0.0930037 0.439216 1
0.0930037 0.0930037 0.439216 1
0.0930037 0.0930037 0.439216 1
0.0930037 0.0930037 0.439216 1
0.0930037 0.0930037 0.439216 1
0.0930037 0.0930037 0.439216 1
0.0930037 0.0930037 0.439216 1
0.0930037 0.0930037 0.439216 1
0.0930037 0.0930037 0.439216 1
0.0930037 0.0930037 0.439216 1
0.0930037 0.0930037 0.439216 1
0.0930037 0.0930037 0.439216 1
0.0930037 0.0930037 0.439216 1
0.0930037 0.0930037 0.439216 1
0.0930037 0.0930037 0.439216 1
0.0930037 0.0930037 0.439216 1
0.0930037 0.0930037 0.439216 1
0.0930037 0.0930037 0.439216 1
0.0930037 0.0930037 0.439216 1
0.0930037 0.0930037 0.439216 1
0.0930037 0.0930037 0.439216 1
0.0930037 0.0930037 0.439216 1
0.0930037 0.0930037 0.439216 1
0.0930037 0.0930037 0.439216 1
0.0930037 0.0930037 0.439216 1
0.0930037 0.0930037 0.439216 1
0.0930037 0.0930037 0.439216 1
0.0930037 0.0930037 0.439216 1
0.0930037 0.0930037 0.439216 1
0.0930037 0.0930037 0.439216 1
0.0930037 0.0930037 0.439216 1
0.0930037 0.0930037 0.439216 1
0.0930037 0.0930037 0.439216 1
0.0930037 0.0930037 0.439216 1
0.0930037 0.0930037 0.439216 1
0.0930037 0.0930037 0.439216 1

