# vtk DataFile Version 3.0
Gocad TSurf to VTK
ASCII
DATASET POLYDATA
POINTS 2217 float
21575500.000 4570720.000 -167.500
21575300.000 4570775.000 -98.750
21575375.000 4570797.500 17.500
21575200.000 4570860.000 125.000
21575650.000 4570765.000 112.500
21575375.000 4570790.000 -391.250
21575100.000 4570830.000 -30.000
21575550.000 4570730.000 -362.500
21575525.000 4570872.500 -608.750
21575700.000 4570665.000 -236.250
21576000.000 4570620.000 0.000
21575775.000 4570697.500 -406.250
21575900.000 4570610.000 -305.000
21575650.000 4570785.000 -507.500
21575850.000 4570735.000 -646.250
21575700.000 4570810.000 -667.500
21575775.000 4571027.500 -835.000
21575575.000 4571307.500 -951.250
21575850.000 4570905.000 -765.000
21576000.000 4570980.000 -940.000
21576000.000 4570660.000 -625.000
21576300.000 4570810.000 -975.000
21576225.000 4571275.000 -1020.000
21576500.000 4570727.500 -846.250
21576225.000 4570592.500 -503.750
21576800.000 4570910.000 -1063.750
21576725.000 4570862.500 -973.750
21576500.000 4571100.000 -1117.500
21576675.000 4571560.000 -1072.500
21576200.000 4571430.000 -1035.000
21576700.000 4571750.000 -1045.000
21576350.000 4571990.000 -1177.500
21576800.000 4571637.500 -1076.250
21577025.000 4571757.500 -1140.000
21576900.000 4571525.000 -1107.500
21577050.000 4571605.000 -1150.000
21577100.000 4571300.000 -1170.000
21577300.000 4571572.500 -1160.000
21577250.000 4571185.000 -1138.750
21577200.000 4571685.000 -1150.000
21577300.000 4571745.000 -1157.500
21577100.000 4571797.500 -1140.000
21577000.000 4571910.000 -1130.000
21577650.000 4571960.000 -1415.000
21576650.000 4571932.500 -1128.750
21576875.000 4572052.500 -1192.500
21576600.000 4572115.000 -1212.500
21576550.000 4572297.500 -1296.250
21576750.000 4572195.000 -1255.000
21576975.000 4572112.500 -1258.750
21576950.000 4572315.000 -1387.500
21577350.000 4572330.000 -1510.000
21577050.000 4572590.000 -1600.000
21577200.000 4572460.000 -1555.000
21576300.000 4572657.500 -1323.750
21576750.000 4572915.000 -1547.500
21576175.000 4572110.000 -1243.750
21575850.000 4572710.000 -1232.500
21576100.000 4571830.000 -1172.500
21575750.000 4571857.500 -1211.250
21576150.000 4571630.000 -1103.750
21575675.000 4571362.500 -996.250
21575325.000 4571622.500 -1043.750
21575450.000 4571465.000 -997.500
21575200.000 4571300.000 -807.500
21575100.000 4571470.000 -856.250
21575100.000 4571240.000 -612.500
21575200.000 4571780.000 -1090.000
21575000.000 4571640.000 -905.000
21575450.000 4572197.500 -1210.000
21575750.000 4572370.000 -1240.000
21575100.000 4572285.000 -1060.000
21575025.000 4571970.000 -1020.000
21575300.000 4572395.000 -1150.000
21575500.000 4572510.000 -1170.000
21575250.000 4572650.000 -1100.000
21574850.000 4572160.000 -950.000
21574675.000 4572350.000 -880.000
21574875.000 4571865.000 -881.250
21574750.000 4572090.000 -857.500
21574650.000 4571732.500 -505.000
21574650.000 4572030.000 -662.500
21574800.000 4571520.000 -515.000
21574575.000 4571702.500 -253.750
21574950.000 4571380.000 -563.750
21574825.000 4571322.500 -240.000
21575000.000 4571185.000 -467.500
21574950.000 4571165.000 -300.000
21575100.000 4571017.500 -443.750
21575250.000 4571100.000 -661.250
21574900.000 4571150.000 5.000
21575100.000 4571025.000 185.000
21575000.000 4571190.000 245.000
21574825.000 4571317.500 61.250
21575175.000 4571062.500 260.000
21575128.984 4571171.398 332.088
21575300.000 4570910.000 225.000
21575217.219 4571083.613 329.668
21575475.000 4570837.500 168.750
21575550.000 4570875.000 292.500
21575497.516 4570904.738 326.610
21575637.922 4570857.414 329.867
21575559.719 4570883.746 327.978
21575732.844 4570822.992 332.036
21575887.313 4570771.473 335.790
21575931.922 4570758.418 336.966
21576068.328 4570720.516 340.661
21576093.891 4570713.895 342.721
21576107.703 4570710.301 343.833
21576225.000 4570562.500 21.250
21576150.594 4570699.125 347.289
21576150.000 4570555.000 -263.750
21576400.000 4570500.000 -222.500
21576450.000 4570525.000 -382.500
21576600.000 4570600.000 -557.500
21576750.000 4570495.000 -348.750
21576700.000 4570645.000 -717.500
21576975.000 4570607.500 -631.250
21576850.000 4570735.000 -802.500
21577200.000 4570750.000 -901.250
21577000.000 4570830.000 -987.500
21577250.000 4570985.000 -995.000
21577400.000 4571070.000 -1107.500
21577400.000 4570680.000 -820.000
21577625.000 4570995.000 -1076.250
21577725.000 4570612.500 -618.750
21577600.000 4571190.000 -1127.500
21577700.000 4571055.000 -1106.250
21577525.000 4571340.000 -1160.000
21577750.000 4571280.000 -1157.500
21577600.000 4571570.000 -1185.000
21577450.000 4571662.500 -1171.250
21577675.000 4571430.000 -1171.250
21577825.000 4571535.000 -1306.250
21577800.000 4571720.000 -1365.000
21577850.000 4571350.000 -1247.500
21578250.000 4571405.000 -1286.250
21577825.000 4571130.000 -1143.750
21578500.000 4571910.000 -1603.750
21578400.000 4571300.000 -1255.000
21578400.000 4572030.000 -1660.000
21578350.000 4572175.000 -1712.500
21577825.000 4571905.000 -1477.500
21577725.000 4571840.000 -1401.250
21578150.000 4572245.000 -1715.000
21577850.000 4572090.000 -1575.000
21578025.000 4572352.500 -1742.500
21577550.000 4571890.000 -1325.000
21577575.000 4571735.000 -1255.000
21577775.000 4572587.500 -1818.750
21578100.000 4572765.000 -1940.000
21577450.000 4572585.000 -1715.000
21577650.000 4572715.000 -1867.500
21577525.000 4572842.500 -1916.250
21577850.000 4572845.000 -1960.000
21577825.000 4573037.500 -2055.000
21578000.000 4572920.000 -2010.000
21577400.000 4573250.000 -1898.750
21577700.000 4573445.000 -2037.500
21576900.000 4573275.000 -1610.000
21576600.000 4573110.000 -1450.000
21577150.000 4573400.000 -1770.000
21577400.000 4573530.000 -1832.500
21576900.000 4573552.500 -1592.500
21577025.000 4573615.000 -1672.500
21576450.000 4573305.000 -1352.500
21576300.000 4573490.000 -1255.000
21576100.000 4572835.000 -1267.500
21575700.000 4573190.000 -1155.000
21576400.000 4572985.000 -1317.500
21575775.000 4572950.000 -1193.750
21575000.000 4572790.000 -1030.000
21575425.000 4573257.500 -1068.750
21575650.000 4573580.000 -1115.000
21574900.000 4572957.500 -975.000
21575150.000 4573325.000 -982.500
21574525.000 4572770.000 -810.000
21574550.000 4573000.000 -810.000
21574500.000 4572540.000 -810.000
21574425.000 4572710.000 -730.000
21574350.000 4572880.000 -650.000
21574200.000 4572360.000 -475.000
21574200.000 4572790.000 -482.500
21574100.000 4572745.000 -125.000
21574275.000 4573050.000 -570.000
21574100.000 4573180.000 -280.000
21574100.000 4572965.000 -251.250
21574175.000 4573417.500 -513.750
21574600.000 4573460.000 -810.000
21574100.000 4573377.500 -266.250
21574150.000 4573595.000 -357.500
21574100.000 4573370.000 -120.000
21574100.000 4573575.000 -252.500
21574100.000 4573170.000 -85.000
21574250.000 4573437.500 101.250
21574125.000 4572967.500 -60.000
21574300.000 4573055.000 213.750
21574150.000 4572765.000 -35.000
21574200.000 4572810.000 70.000
21574100.000 4572320.000 -165.000
21574175.000 4572570.000 -10.000
21574350.000 4572150.000 -485.000
21574250.000 4572110.000 -168.750
21574450.000 4571925.000 -327.500
21574200.000 4572360.000 15.000
21574325.000 4572145.000 21.250
21574400.000 4572205.000 178.750
21574450.000 4571925.000 -82.500
21574500.000 4571960.000 132.500
21574600.000 4571715.000 86.250
21574425.000 4572210.000 260.000
21574300.000 4572440.000 225.000
21574550.000 4571980.000 295.000
21574675.000 4571752.500 330.000
21574675.000 4571750.000 330.000
21574741.828 4571628.199 348.712
21574741.656 4571627.344 348.665
21574785.219 4571534.410 344.401
21574700.000 4571470.000 40.000
21574793.406 4571516.707 343.587
21574700.000 4571480.000 -180.000
21574900.000 4571355.000 305.000
21574840.109 4571453.828 340.938
21574944.281 4571347.109 336.782
21574924.578 4571367.289 337.568
21574963.875 4571327.297 336.230
21575066.672 4571223.332 333.332
21574675.000 4572350.000 -880.000
21574250.000 4572630.000 147.500
21574300.000 4572645.000 221.250
21574300.000 4572850.000 217.500
21574300.000 4573260.000 210.000
21574200.000 4573640.000 217.500
21574200.000 4573615.000 -7.500
21574200.000 4573640.000 217.500
21574150.000 4573830.000 221.250
21574100.000 4573770.000 -190.000
21574100.000 4574020.000 225.000
21574125.000 4573812.500 -561.250
21574100.000 4573970.000 -225.000
21574475.000 4573597.500 -753.750
21574350.000 4573735.000 -697.500
21574625.000 4573675.000 -1018.750
21574075.000 4574165.000 -678.750
21574375.000 4573962.500 -1038.750
21573950.000 4574265.000 -535.000
21573875.000 4574400.000 -510.000
21573950.000 4574235.000 -195.000
21573875.000 4574382.500 -420.000
21574025.000 4574147.500 127.500
21573875.000 4574382.500 -67.500
21574050.000 4574167.500 225.000
21574000.000 4574305.000 225.000
21574050.000 4574160.000 225.000
21573950.000 4574442.500 225.000
21573950.000 4574440.000 225.000
21573900.000 4574580.000 225.000
21573800.000 4574500.000 -165.000
21573800.000 4574667.500 127.500
21573875.000 4574367.500 -180.000
21573725.000 4574622.500 -405.000
21573650.000 4574745.000 -507.500
21573725.000 4574607.500 -165.000
21573650.000 4574725.000 -325.000
21573700.000 4574755.000 30.000
21573650.000 4574715.000 -165.000
21573750.000 4574800.000 217.500
21573600.000 4575020.000 210.000
21573825.000 4574690.000 221.250
21573675.000 4574910.000 213.750
21573450.000 4575030.000 -75.000
21573525.000 4575097.500 206.250
21573575.000 4574827.500 -245.000
21573400.000 4575007.500 -165.000
21573500.000 4574960.000 -530.000
21573875.000 4574712.500 -852.500
21573400.000 4575032.500 -505.000
21573300.000 4575090.000 -297.500
21573425.000 4575050.000 -596.250
21573500.000 4575210.000 -997.500
21573300.000 4575105.000 -480.000
21573200.000 4575177.500 -455.000
21573200.000 4575162.500 -165.000
21572900.000 4575355.000 -280.000
21573300.000 4575085.000 -165.000
21573400.000 4575130.000 15.000
21573450.000 4575175.000 202.500
21573375.000 4575252.500 198.750
21573525.000 4575097.500 206.250
21573300.000 4575330.000 195.000
21573050.000 4575412.500 188.750
[...]
POINT_DATA 2217
COLOR_SCALARS GocadColor 4
0.960784 0.870588 0.701961 1
0.960784 0.870588 0.701961 1
0.960784 0.870588 0.701961 1
0.960784 0.870588 0.701961 1
0.960784 0.870588 0.701961 1
0.960784 0.870588 0.701961 1
0.960784 0.870588 0.701961 1
0.960784 0.870588 0.701961 1
0.960784 0.870588 0.701961 1
0.960784 0.870588 0.701961 1
0.960784 0.870588 0.701961 1
0.960784 0.870588 0.701961 1
0.960784 0.870588 0.701961 1
0.960784 0.870588 0.701961 1
0.960784 0.870588 0.701961 1
0.960784 0.870588 0.701961 1
0.960784 0.870588 0.701961 1
0.960784 0.870588 0.701961 1
0.960784 0.870588 0.701961 1
0.960784 0.870588 0.701961 1
0.960784 0.870588 0.701961 1
0.960784 0.870588 0.701961 1
0.960784 0.870588 0.701961 1
0.960784 0.870588 0.701961 1
0.960784 0.870588 0.701961 1
0.960784 0.870588 0.701961 1
0.960784 0.870588 0.701961 1
0.960784 0.870588 0.701961 1
0.960784 0.870588 0.701961 1
0.960784 0.870588 0.701961 1
0.960784 0.870588 0.701961 1
0.960784 0.870588 0.701961 1
0.960784 0.870588 0.701961 1
0.960784 0.870588 0.701961 1
0.960784 0.870588 0.701961 1
0.960784 0.870588 0.701961 1
0.960784 0.870588 0.701961 1
0.960784 0.870588 0.701961 1
0.960784 0.870588 0.701961 1
0.960784 0.870588 0.701961 1
0.960784 0.870588 0.701961 1
0.960784 0.870588 0.701961 1
0.960784 0.870588 0.701961 1
0.960784 0.870588 0.701961 1
0.960784 0.870588 0.701961 1
0.960784 0.870588 0.701961 1
0.960784 0.870588 0.701961 1
0.960784 0.870588 0.701961 1
0.960784 0.870588 0.701961 1
0.960784 0.870588 0.701961 1
0.960784 0.870588 0.701961 1
0.960784 0.870588 0.701961 1
0.960784 0.870588 0.701961 1
0.960784 0.870588 0.701961 1
0.960784 0.870588 0.701961 1
0.960784 0.870588 0.701961 1
0.960784 0.870588 0.701961 1
0.960784 0.870588 0.701961 1
0.960784 0.870588 0.701961 1
0.960784 0.870588 0.701961 1
0.960784 0.870588 0.701961 1
0.960784 0.870588 0.701961 1
0.960784 0.870588 0.701961 1
0.960784 0.870588 0.701961 1
0.960784 0.870588 0.701961 1
0.960784 0.870588 0.701961 1
0.960784 0.870588 0.701961 1
0.960784 0.870588 0.701961 1
0.960784 0.870588 0.701961 1
0.960784 0.870588 0.701961 1
0.960784 0.870588 0.701961 1
0.960784 0.870588 0.701961 1
0.960784 0.870588 0.701961 1
0.960784 0.870588 0.701961 1
0.960784 0.870588 0.701961 1
0.960784 0.870588 0.701961 1
0.960784 0.870588 0.701961 1
0.960784 0.870588 0.701961 1
0.960784 0.870588 0.701961 1
0.960784 0.870588 0.701961 1
0.960784 0.870588 0.701961 1
0.960784 0.870588 0.701961 1
0.960784 0.870588 0.701961 1
0.960784 0.870588 0.701961 1
0.960784 0.870588 0.701961 1
0.960784 0.870588 0.701961 1
0.960784 0.870588 0.701961 1
0.960784 0.870588 0.701961 1
0.960784 0.870588 0.701961 1
0.960784 0.870588 0.701961 1
0.960784 0.870588 0.701961 1
0.960784 0.870588 0.701961 1
0.960784 0.870588 0.701961 1
0.960784 0.870588 0.701961 1
0.960784 0.870588 0.701961 1
0.960784 0.870588 0.701961 1
0.960784 0.870588 0.701961 1
0.960784 0.870588 0.701961 1
0.960784 0.870588 0.701961 1
0.960784 0.870588 0.701961 1
0.960784 0.870588 0.701961 1
0.960784 0.870588 0.701961 1
0.960784 0.870588 0.701961 1
0.960784 0.870588 0.701961 1
0.960784 0.870588 0.701961 1
0.960784 0.870588 0.701961 1
0.960784 0.870588 0.701961 1
0.960784 0.870588 0.701961 1
0.960784 0.870588 0.701961 1
0.960784 0.870588 0.701961 1
0.960784 0.870588 0.701961 1
0.960784 0.870588 0.701961 1
0.960784 0.870588 0.701961 1
0.960784 0.870588 0.701961 1
0.960784 0.870588 0.701961 1
0.960784 0.870588 0.701961 1
0.960784 0.870588 0.701961 1
0.960784 0.870588 0.701961 1
0.960784 0.870588 0.701961 1
0.960784 0.870588 0.701961 1
0.960784 0.870588 0.701961 1
0.960784 0.870588 0.701961 1
0.960784 0.870588 0.701961 1
0.960784 0.870588 0.701961 1
0.960784 0.870588 0.701961 1
0.960784 0.870588 0.701961 1
0.960784 0.870588 0.701961 1
0.960784 0.870588 0.701961 1
0.960784 0.870588 0.701961 1
0.960784 0.870588 0.701961 1
0.960784 0.870588 0.701961 1
0.960784 0.870588 0.701961 1
0.960784 0.870588 0.701961 1
0.960784 0.870588 0.701961 1
0.960784 0.870588 0.701961 1
0.960784 0.870588 0.701961 1
0.960784 0.870588 0.701961 1
0.960784 0.870588 0.701961 1
0.960784 0.870588 0.701961 1
0.960784 0.870588 0.701961 1
0.960784 0.870588 0.701961 1
0.960784 0.870588 0.701961 1
0.960784 0.870588 0.701961 1
0.960784 0.870588 0.701961 1
0.960784 0.870588 0.701961 1
0.960784 0.870588 0.701961 1
0.960784 0.870588 0.701961 1
0.960784 0.870588 0.701961 1
0.960784 0.870588 0.701961 1
0.960784 0.870588 0.701961 1
0.960784 0.870588 0.701961 1
0.960784 0.870588 0.701961 1
0.960784 0.870588 0.701961 1
0.960784 0.870588 0.701961 1
0.960784 0.870588 0.701961 1
0.960784 0.870588 0.701961 1
0.960784 0.870588 0.701961 1
0.960784 0.870588 0.701961 1
0.960784 0.870588 0.701961 1
0.960784 0.870588 0.701961 1
0.960784 0.870588 0.701961 1
0.960784 0.870588 0.701961 1
0.960784 0.870588 0.701961 1
0.960784 0.870588 0.701961 1
0.960784 0.870588 0.701961 1
0.960784 0.870588 0.701961 1
0.960784 0.870588 0.701961 1
0.960784 0.870588 0.701961 1
0.960784 0.870588 0.701961 1
0.960784 0.870588 0.701961 1
0.960784 0.870588 0.701961 1
0.960784 0.870588 0.701961 1
0.960784 0.870588 0.701961 1
0.960784 0.870588 0.701961 1
0.960784 0.870588 0.701961 1
0.960784 0.870588 0.701961 1
0.960784 0.870588 0.701961 1
0.960784 0.870588 0.701961 1
0.960784 0.870588 0.701961 1
0.960784 0.870588 0.701961 1
0.960784 0.870588 0.701961 1
0.960784 0.870588 0.701961 1
0.960784 0.870588 0.701961 1
0.960784 0.870588 0.701961 1
0.960784 0.870588 0.701961 1
0.960784 0.870588 0.701961 1
0.960784 0.870588 0.701961 1
0.960784 0.870588 0.701961 1
0.960784 0.870588 0.701961 1
0.960784 0.870588 0.701961 1
0.960784 0.870588 0.701961 1
0.960784 0.870588 0.701961 1
0.960784 0.870588 0.701961 1
0.960784 0.870588 0.701961 1
0.960784 0.870588 0.701961 1
0.960784 0.870588 0.701961 1
0.960784 0.870588 0.701961 1
0.960784 0.870588 0.701961 1
0.960784 0.870588 0.701961 1
0.960784 0.870588 0.701961 1
0.960784 0.870588 0.701961 1
0.960784 0.870588 0.701961 1
0.960784 0.870588 0.701961 1
0.960784 0.870588 0.701961 1
0.960784 0.870588 0.701961 1
0.960784 0.870588 0.701961 1
0.960784 0.870588 0.701961 1
0.960784 0.870588 0.701961 1
0.960784 0.870588 0.701961 1
0.960784 0.870588 0.701961 1
0.960784 0.870588 0.701961 1
0.960784 0.870588 0.701961 1
0.960784 0.870588 0.701961 1
0.960784 0.870588 0.701961 1
0.960784 0.870588 0.701961 1
0.960784 0.870588 0.701961 1
0.960784 0.870588 0.701961 1
0.960784 0.870588 0.701961 1
0.960784 0.870588 0.701961 1
0.960784 0.870588 0.701961 1
0.960784 0.870588 0.701961 1
0.960784 0.870588 0.701961 1
0.960784 0.870588 0.701961 1
0.960784 0.870588 0.701961 1
0.960784 0.870588 0.701961 1
0.960784 0.870588 0.701961 1
0.960784 0.870588 0.701961 1
0.960784 0.870588 0.701961 1
0.960784 0.870588 0.701961 1
0.960784 0.870588 0.701961 1
0.960784 0.870588 0.701961 1
0.960784 0.870588 0.701961 1
0.960784 0.870588 0.701961 1
0.960784 0.870588 0.701961 1
0.960784 0.870588 0.701961 1
0.960784 0.870588 0.701961 1
0.960784 0.870588 0.701961 1
0.960784 0.870588 0.701961 1
0.960784 0.870588 0.701961 1
0.960784 0.870588 0.701961 1
0.960784 0.870588 0.701961 1
0.960784 0.870588 0.701961 1
0.960784 0.870588 0.701961 1
0.960784 0.870588 0.701961 1
0.960784 0.870588 0.701961 1
0.960784 0.870588 0.701961 1
0.960784 0.870588 0.701961 1
0.960784 0.870588 0.701961 1
0.960784 0.870588 0.701961 1
0.960784 0.870588 0.701961 1
0.960784 0.870588 0.701961 1
0.960784 0.870588 0.701961 1
0.960784 0.870588 0.701961 1
0.960784 0.870588 0.701961 1
0.960784 0.870588 0.701961 1
0.960784 0.870588 0.701961 1
0.960784 0.870588 0.701961 1
0.960784 0.870588 0.701961 1
0.960784 0.870588 0.701961 1
0.960784 0.870588 0.701961 1
0.960784 0.870588 0.701961 1
0.960784 0.870588 0.701961 1
0.960784 0.870588 0.701961 1
0.960784 0.870588 0.701961 1
0.960784 0.870588 0.701961 1
0.960784 0.870588 0.701961 1
0.960784 0.870588 0.701961 1
0.960784 0.870588 0.701961 1
0.960784 0.870588 0.701961 1
0.960784 0.870588 0.701961 1
0.960784 0.870588 0.701961 1
0.960784 0.870588 0.701961 1
0.960784 0.870588 0.701961 1
0.960784 0.870588 0.701961 1
0.960784 0.870588 0.701961 1
0.960784 0.870588 0.701961 1
0.960784 0.870588 0.701961 1
0.960784 0.870588 0.701961 1
0.960784 0.870588 0.701961 1
0.960784 0.870588 0.701961 1
0.960784 0.870588 0.701961 1
0.960784 0.870588 0.701961 1
0.960784 0.870588 0.701961 1
0.960784 0.870588 0.701961 1
0.960784 0.870588 0.701961 1
0.960784 0.870588 0.701961 1
0.960784 0.870588 0.701961 1
0.960784 0.870588 0.701961 1
0.960784 0.870588 0.701961 1
0.960784 0.870588 0.701961 1
0.960784 0.870588 0.701961 1
0.960784 0.870588 0.701961 1
0.960784 0.870588 0.701961 1
0.960784 0.870588 0.701961 1
0.960784 0.870588 0.701961 1
0.960784 0.870588 0.701961 1
0.960784 0.870588 0.701961 1
0.960784 0.870588 0.701961 1
0.960784 0.870588 0.701961 1
0.960784 0.870588 0.701961 1
0.960784 0.870588 0.701961 1
0.960784 0.870588 0.701961 1
0.960784 0.870588 0.701961 1
0.960784 0.870588 0.701961 1
0.960784 0.870588 0.701961 1
0.960784 0.870588 0.701961 1
0.960784 0.870588 0.701961 1
0.960784 0.870588 0.701961 1
0.960784 0.870588 0.701961 1
0.960784 0.870588 0.701961 1
0.960784 0.870588 0.701961 1
0.960784 0.870588 0.701961 1
0.960784 0.870588 0.701961 1
0.960784 0.870588 0.701961 1
0.960784 0.870588 0.701961 1
0.960784 0.870588 0.701961 1
0.960784 0.870588 0.701961 1
0.960784 0.870588 0.701961 1
0.960784 0.870588 0.701961 1
0.960784 0.870588 0.701961 1
0.960784 0.870588 0.701961 1
0.960784 0.870588 0.701961 1
0.960784 0.870588 0.701961 1
0.960784 0.870588 0.701961 1
0.960784 0.870588 0.701961 1
0.960784 0.870588 0.701961 1
0.960784 0.870588 0.701961 1
0.960784 0.870588 0.701961 1
0.960784 0.870588 0.701961 1
0.960784 0.870588 0.701961 1
0.960784 0.870588 0.701961 1
0.960784 0.870588 0.701961 1
0.960784 0.870588 0.701961 1
0.960784 0.870588 0.701961 1
0.960784 0.870588 0.701961 1
0.960784 0.870588 0.701961 1
0.960784 0.870588 0.701961 1
0.960784 0.870588 0.701961 1
0.960784 0.870588 0.701961 1
0.960784 0.870588 0.701961 1
0.960784 0.870588 0.701961 1
0.960784 0.870588 0.701961 1
0.960784 0.870588 0.701961 1
0.960784 0.870588 0.701961 1
0.960784 0.870588 0.701961 1
0.960784 0.870588 0.701961 1
0.960784 0.870588 0.701961 1
0.960784 0.870588 0.701961 1
0.960784 0.870588 0.701961 1
0.960784 0.870588 0.701961 1
0.960784 0.870588 0.701961 1
0.960784 0.870588 0.701961 1
0.960784 0.870588 0.701961 1
0.960784 0.870588 0.701961 1
0.960784 0.870588 0.701961 1
0.960784 0.870588 0.701961 1
0.960784 0.870588 0.701961 1
0.960784 0.870588 0.701961 1
0.960784 0.870588 0.701961 1
0.960784 0.870588 0.701961 1
0.960784 0.870588 0.701961 1
0.960784 0.870588 0.701961 1
0.960784 0.870588 0.701961 1
0.960784 0.870588 0.701961 1
0.960784 0.870588 0.701961 1
0.960784 0.870588 0.701961 1
0.960784 0.870588 0.701961 1
0.960784 0.870588 0.701961 1
0.960784 0.870588 0.701961 1
0.960784 0.870588 0.701961 1
0.960784 0.870588 0.701961 1
0.960784 0.870588 0.701961 1
0.960784 0.870588 0.701961 1
0.960784 0.870588 0.701961 1
0.960784 0.870588 0.701961 1
0.960784 0.870588 0.701961 1
0.960784 0.870588 0.701961 1
0.960784 0.870588 0.701961 1
0.960784 0.870588 0.701961 1
0.960784 0.870588 0.701961 1
0.960784 0.870588 0.701961 1
0.960784 0.870588 0.701961 1
0.960784 0.870588 0.701961 1
0.960784 0.870588 0.701961 1
0.960784 0.870588 0.701961 1
0.960784 0.870588 0.701961 1
0.960784 0.870588 0.701961 1
0.960784 0.870588 0.701961 1
0.960784 0.870588 0.701961 1
0.960784 0.870588 0.701961 1
0.960784 0.870588 0.701961 1
0.960784 0.870588 0.701961 1
0.960784 0.870588 0.701961 1
0.960784 0.870588 0.701961 1
0.960784 0.870588 0.701961 1
0.960784 0.870588 0.701961 1
0.960784 0.870588 0.701961 1
0.960784 0.870588 0.701961 1
0.960784 0.870588 0.701961 1
0.960784 0.870588 0.701961 1
0.960784 0.870588 0.701961 1
0.960784 0.870588 0.701961 1
0.960784 0.870588 0.701961 1
0.960784 0.870588 0.701961 1
0.960784 0.870588 0.701961 1
0.960784 0.870588 0.701961 1
0.960784 0.870588 0.701961 1
0.960784 0.870588 0.701961 1
0.960784 0.870588 0.701961 1
0.960784 0.870588 0.701961 1
0.960784 0.870588 0.701961 1
0.960784 0.870588 0.701961 1
0.960784 0.870588 0.701961 1
0.960784 0.870588 0.701961 1
0.960784 0.870588 0.701961 1
0.960784 0.870588 0.701961 1
0.960784 0.870588 0.701961 1
0.960784 0.870588 0.701961 1
0.960784 0.870588 0.701961 1
0.960784 0.870588 0.701961 1
0.960784 0.870588 0.701961 1
0.960784 0.870588 0.701961 1
0.960784 0.870588 0.701961 1
0.960784 0.870588 0.701961 1
0.960784 0.870588 0.701961 1
0.960784 0.870588 0.701961 1
0.960784 0.870588 0.701961 1
0.960784 0.870588 0.701961 1
0.960784 0.870588 0.701961 1
0.960784 0.870588 0.701961 1
0.960784 0.870588 0.701961 1
0.960784 0.870588 0.701961 1
0.960784 0.870588 0.701961 1
0.960784 0.870588 0.701961 1
0.960784 0.870588 0.701961 1
0.960784 0.870588 0.701961 1
0.960784 0.870588 0.701961 1
0.960784 0.870588 0.701961 1
0.960784 0.870588 0.701961 1
0.960784 0.870588 0.701961 1
0.960784 0.870588 0.701961 1
0.960784 0.870588 0.701961 1
0.960784 0.870588 0.701961 1
0.960784 0.870588 0.701961 1
0.960784 0.870588 0.701961 1
0.960784 0.870588 0.701961 1
0.960784 0.870588 0.701961 1
0.960784 0.870588 0.701961 1
0.960784 0.870588 0.701961 1
0.960784 0.870588 0.701961 1
0.960784 0.870588 0.701961 1
0.960784 0.870588 0.701961 1
0.960784 0.870588 0.701961 1
0.960784 0.870588 0.701961 1
0.960784 0.870588 0.701961 1
0.960784 0.870588 0.701961 1
0.960784 0.870588 0.701961 1
0.960784 0.870588 0.701961 1
0.960784 0.870588 0.701961 1
0.960784 0.870588 0.701961 1
0.960784 0.870588 0.701961 1
0.960784 0.870588 0.701961 1
0.960784 0.870588 0.701961 1
0.960784 0.870588 0.701961 1
0.960784 0.870588 0.701961 1
0.960784 0.870588 0.701961 1
0.960784 0.870588 0.701961 1
0.960784 0.870588 0.701961 1
0.960784 0.870588 0.701961 1
0.960784 0.870588 0.701961 1
0.960784 0.870588 0.701961 1
0.960784 0.870588 0.701961 1
0.960784 0.870588 0.701961 1
0.960784 0.870588 0.701961 1
0.960784 0.870588 0.701961 1
0.960784 0.870588 0.701961 1
0.960784 0.870588 0.701961 1
0.960784 0.870588 0.701961 1
0.960784 0.870588 0.701961 1
0.960784 0.870588 0.701961 1
0.960784 0.870588 0.701961 1
0.960784 0.870588 0.701961 1
0.960784 0.870588 0.701961 1
0.960784 0.870588 0.701961 1
0.960784 0.870588 0.701961 1
0.960784 0.870588 0.701961 1
0.960784 0.870588 0.701961 1
0.960784 0.870588 0.701961 1
0.960784 0.870588 0.701961 1
0.960784 0.870588 0.701961 1
0.960784 0.870588 0.701961 1
0.960784 0.870588 0.701961 1
0.960784 0.870588 0.701961 1
0.960784 0.870588 0.701961 1
0.960784 0.870588 0.701961 1
0.960784 0.870588 0.701961 1
0.960784 0.870588 0.701961 1
0.960784 0.870588 0.701961 1
0.960784 0.870588 0.701961 1
0.960784 0.870588 0.701961 1
0.960784 0.870588 0.701961 1
0.960784 0.870588 0.701961 1
0.960784 0.870588 0.701961 1
0.960784 0.870588 0.701961 1
0.960784 0.870588 0.701961 1
0.960784 0.870588 0.701961 1
0.960784 0.870588 0.701961 1
0.960784 0.870588 0.701961 1
0.960784 0.870588 0.701961 1
0.960784 0.870588 0.701961 1
0.960784 0.870588 0.701961 1
0.960784 0.870588 0.701961 1
0.960784 0.870588 0.701961 1
0.960784 0.870588 0.701961 1
0.960784 0.870588 0.701961 1
0.960784 0.870588 0.701961 1
0.960784 0.870588 0.701961 1
0.960784 0.870588 0.701961 1
0.960784 0.870588 0.701961 1
0.960784 0.870588 0.701961 1
0.960784 0.870588 0.701961 1
0.960784 0.870588 0.701961 1
0.960784 0.870588 0.701961 1
0.960784 0.870588 0.701961 1
0.960784 0.870588 0.701961 1
0.960784 0.870588 0.701961 1
0.960784 0.870588 0.701961 1
0.960784 0.870588 0.701961 1
0.960784 0.870588 0.701961 1
0.960784 0.870588 0.701961 1
0.960784 0.870588 0.701961 1
0.960784 0.870588 0.701961 1
0.960784 0.870588 0.701961 1
0.960784 0.870588 0.701961 1
0.960784 0.870588 0.701961 1
0.960784 0.870588 0.701961 1
0.960784 0.870588 0.701961 1
0.960784 0.870588 0.701961 1
0.960784 0.870588 0.701961 1
0.960784 0.870588 0.701961 1
0.960784 0.870588 0.701961 1
0.960784 0.870588 0.701961 1
0.960784 0.870588 0.701961 1
0.960784 0.870588 0.701961 1
0.960784 0.870588 0.701961 1
0.960784 0.870588 0.701961 1
0.960784 0.870588 0.701961 1
0.960784 0.870588 0.701961 1
0.960784 0.870588 0.701961 1
0.960784 0.870588 0.701961 1
0.960784 0.870588 0.701961 1
0.960784 0.870588 0.701961 1
0.960784 0.870588 0.701961 1
0.960784 0.870588 0.701961 1
0.960784 0.870588 0.701961 1
0.960784 0.870588 0.701961 1
0.960784 0.870588 0.701961 1
0.960784 0.870588 0.701961 1
0.960784 0.870588 0.701961 1
0.960784 0.870588 0.701961 1
0.960784 0.870588 0.701961 1
0.960784 0.870588 0.701961 1
0.960784 0.870588 0.701961 1
0.960784 0.870588 0.701961 1
0.960784 0.870588 0.701961 1
0.960784 0.870588 0.701961 1
0.960784 0.870588 0.701961 1
0.960784 0.870588 0.701961 1
0.960784 0.870588 0.701961 1
0.960784 0.870588 0.701961 1
0.960784 0.870588 0.701961 1
0.960784 0.870588 0.701961 1
0.960784 0.870588 0.701961 1
0.960784 0.870588 0.701961 1
0.960784 0.870588 0.701961 1
0.960784 0.870588 0.701961 1
0.960784 0.870588 0.701961 1
0.960784 0.870588 0.701961 1
0.960784 0.870588 0.701961 1
0.960784 0.870588 0.701961 1
0.960784 0.870588 0.701961 1
0.960784 0.870588 0.701961 1
0.960784 0.870588 0.701961 1
0.960784 0.870588 0.701961 1
0.960784 0.870588 0.701961 1
0.960784 0.870588 0.701961 1
0.960784 0.870588 0.701961 1
0.960784 0.870588 0.701961 1
0.960784 0.870588 0.701961 1
0.960784 0.870588 0.701961 1
0.960784 0.870588 0.701961 1
0.960784 0.870588 0.701961 1
0.960784 0.870588 0.701961 1
0.960784 0.870588 0.701961 1
0.960784 0.870588 0.701961 1
0.960784 0.870588 0.701961 1
0.960784 0.870588 0.701961 1
0.960784 0.870588 0.701961 1
0.960784 0.870588 0.701961 1
0.960784 0.870588 0.701961 1
0.960784 0.870588 0.701961 1
0.960784 0.870588 0.701961 1
0.960784 0.870588 0.701961 1
0.960784 0.870588 0.701961 1
0.960784 0.870588 0.701961 1
0.960784 0.870588 0.701961 1
0.960784 0.870588 0.701961 1
0.960784 0.870588 0.701961 1
0.960784 0.870588 0.701961 1
0.960784 0.870588 0.701961 1
0.960784 0.870588 0.701961 1
0.960784 0.870588 0.701961 1
0.960784 0.870588 0.701961 1
0.960784 0.870588 0.701961 1
0.960784 0.870588 0.701961 1
0.960784 0.870588 0.701961 1
0.960784 0.870588 0.701961 1
0.960784 0.870588 0.701961 1
0.960784 0.870588 0.701961 1
0.960784 0.870588 0.701961 1
0.960784 0.870588 0.701961 1
0.960784 0.870588 0.701961 1
0.960784 0.870588 0.701961 1
0.960784 0.870588 0.701961 1
0.960784 0.870588 0.701961 1
0.960784 0.870588 0.701961 1
0.960784 0.870588 0.701961 1
0.960784 0.870588 0.701961 1
0.960784 0.870588 0.701961 1
0.960784 0.870588 0.701961 1
0.960784 0.870588 0.701961 1
0.960784 0.870588 0.701961 1
0.960784 0.870588 0.701961 1
0.960784 0.870588 0.701961 1
0.960784 0.870588 0.701961 1
0.960784 0.870588 0.701961 1
0.960784 0.870588 0.701961 1
0.960784 0.870588 0.701961 1
0.960784 0.870588 0.701961 1
0.960784 0.870588 0.701961 1
0.960784 0.870588 0.701961 1
0.960784 0.870588 0.701961 1
0.960784 0.870588 0.701961 1
0.960784 0.870588 0.701961 1
0.960784 0.870588 0.701961 1
0.960784 0.870588 0.701961 1
0.960784 0.870588 0.701961 1
0.960784 0.870588 0.701961 1
0.960784 0.870588 0.701961 1
0.960784 0.870588 0.701961 1
0.960784 0.870588 0.701961 1
0.960784 0.870588 0.701961 1
0.960784 0.870588 0.701961 1
0.960784 0.870588 0.701961 1
0.960784 0.870588 0.701961 1
0.960784 0.870588 0.701961 1
0.960784 0.870588 0.701961 1
0.960784 0.870588 0.701961 1
0.960784 0.870588 0.701961 1
0.960784 0.870588 0.701961 1
0.960784 0.870588 0.701961 1
0.960784 0.870588 0.701961 1
0.960784 0.870588 0.701961 1
0.960784 0.870588 0.701961 1
0.960784 0.870588 0.701961 1
0.960784 0.870588 0.701961 1
0.960784 0.870588 0.701961 1
0.960784 0.870588 0.701961 1
0.960784 0.870588 0.701961 1
0.960784 0.870588 0.701961 1
0.960784 0.870588 0.701961 1
0.960784 0.870588 0.701961 1
0.960784 0.870588 0.701961 1
0.960784 0.870588 0.701961 1
0.960784 0.870588 0.701961 1
0.960784 0.870588 0.701961 1
0.960784 0.870588 0.701961 1
0.960784 0.870588 0.701961 1
0.960784 0.870588 0.701961 1
0.960784 0.870588 0.701961 1
0.960784 0.870588 0.701961 1
0.960784 0.870588 0.701961 1
0.960784 0.870588 0.701961 1
0.960784 0.870588 0.701961 1
0.960784 0.870588 0.701961 1
0.960784 0.870588 0.701961 1
0.960784 0.870588 0.701961 1
0.960784 0.870588 0.701961 1