# vtk DataFile Version 3.0
Gocad TSurf to VTK
ASCII
DATASET POLYDATA
POINTS 149 float
21603375.000 4583960.000 -100.000
21602600.000 4584500.000 335.000
21603400.000 4583730.000 -250.000
21602750.000 4584100.000 55.000
21603675.000 4583607.500 -438.750
21602775.000 4584537.500 338.750
21603325.000 4584420.000 200.000
21602775.000 4584547.500 345.000
21603125.000 4584612.500 346.250
21603125.000 4584642.500 365.000
21603300.000 4584680.000 375.000
21603825.000 4584825.000 345.000
21604500.000 4583240.000 -1005.000
21604250.000 4584055.000 -335.000
21604700.000 4582945.000 -1178.750
21605300.000 4582290.000 -1800.000
21605300.000 4582060.000 -1700.000
21605300.000 4582117.500 -1725.000
21604300.000 4582830.000 -1040.000
21602900.000 4583700.000 -225.000
21605275.000 4582027.500 -1732.500
21605250.000 4581995.000 -1765.000
21605225.000 4581962.500 -1797.500
21605200.000 4581930.000 -1830.000
21604775.000 4582085.000 -1690.000
21603350.000 4582837.500 -1008.750
21605125.000 4581865.000 -1951.250
21605050.000 4581800.000 -2072.500
21604975.000 4581735.000 -2193.750
21604900.000 4581670.000 -2315.000
21604100.000 4582060.000 -1815.000
21602475.000 4582447.500 -1363.750
21604850.000 4581645.000 -2326.250
21604800.000 4581620.000 -2337.500
21604750.000 4581595.000 -2348.750
21604700.000 4581570.000 -2360.000
21603750.000 4581865.000 -1912.500
21604650.000 4581485.000 -2408.750
21604600.000 4581400.000 -2457.500
21604550.000 4581315.000 -2506.250
21604500.000 4581230.000 -2555.000
21602300.000 4582430.000 -1395.000
21603350.000 4581455.000 -1803.750
21602175.000 4581280.000 -1065.000
21604300.000 4581205.000 -2401.250
21603900.000 4581155.000 -2093.750
21604400.000 4581142.500 -2471.250
21604300.000 4581055.000 -2387.500
21604200.000 4580967.500 -2303.750
21604100.000 4580880.000 -2220.000
21603725.000 4580982.500 -1943.750
21602975.000 4580772.500 -1557.500
21604025.000 4580795.000 -2153.750
21603950.000 4580710.000 -2087.500
21603875.000 4580625.000 -2021.250
21603800.000 4580540.000 -1955.000
21603625.000 4580565.000 -1877.500
21603275.000 4580615.000 -1722.500
21603775.000 4580490.000 -1968.750
21603725.000 4580390.000 -1996.250
21603775.000 4580490.000 -1968.750
21603750.000 4580440.000 -1982.500
21603700.000 4580340.000 -2010.000
21603100.000 4580640.000 -1645.000
21601325.000 4581500.000 -605.000
21600900.000 4581610.000 -375.000
21600900.000 4581845.000 -390.000
21600625.000 4582082.500 -233.750
21600775.000 4582282.500 -345.000
21599800.000 4582090.000 280.000
21599675.000 4582282.500 293.750
21599550.000 4582475.000 307.500
21599425.000 4582667.500 321.250
21599850.000 4582875.000 85.000
21599381.070 4582738.664 326.082
21599368.867 4582770.539 324.864
21599328.125 4582870.258 322.216
21599391.633 4583002.094 304.807
21599393.844 4583006.852 304.188
21599392.797 4583141.008 315.680
21599391.703 4583281.219 327.691
21599399.281 4583289.438 327.606
21599399.406 4583289.711 327.640
21599379.500 4583462.758 350.384
21600125.000 4583195.000 -26.250
21599368.086 4583502.352 355.646
21601825.000 4582545.000 -1087.500
21599300.000 4584110.000 390.000
21599300.000 4583965.000 390.000
21599850.000 4583920.000 218.750
21601900.000 4582890.000 -845.000
21599625.000 4584042.500 306.250
21599950.000 4583975.000 222.500
21599375.000 4584180.000 386.250
21599450.000 4584250.000 382.500
21599525.000 4584320.000 378.750
21599600.000 4584390.000 375.000
21600550.000 4584020.000 152.500
21600950.000 4583540.000 -123.750
21599800.000 4584432.500 392.500
21600500.000 4584200.000 250.000
21600200.000 4584517.500 427.500
21600400.000 4584560.000 445.000
21600825.000 4584517.500 421.250
21601200.000 4583907.500 55.000
21600800.000 4583862.500 55.000
21601750.000 4584160.000 202.500
21601450.000 4583640.000 -120.000
21601250.000 4584475.000 397.500
21601675.000 4584432.500 373.750
21602100.000 4584390.000 350.000
21602025.000 4583767.500 -58.750
21602675.000 4583665.000 -217.500
21602225.000 4584417.500 346.250
21602350.000 4584445.000 342.500
21602475.000 4584472.500 338.750
21602225.000 4583595.000 -202.500
21602275.000 4583252.500 -462.500
21602700.000 4582900.000 -850.000
21602025.000 4583157.500 -527.500
21602000.000 4583560.000 -195.000
21602100.000 4582770.000 -977.500
21602200.000 4582600.000 -1186.250
21601625.000 4583402.500 -270.000
21599300.000 4583820.000 390.000
21599300.000 4583761.250 390.000
21599326.781 4583659.422 376.488
21605300.000 4582175.000 -1750.000
21605300.000 4582232.500 -1775.000
21605100.000 4582765.000 -1375.000
21605325.000 4582295.000 -1761.250
21604800.000 4583240.000 -963.750
21605400.000 4582310.000 -1645.000
21605075.000 4583022.500 -1088.750
21605375.000 4582305.000 -1683.750
21605350.000 4582300.000 -1722.500
21604975.000 4583865.000 -542.500
21605450.000 4582325.000 -1610.000
21605425.000 4582587.500 -1366.250
21605500.000 4582340.000 -1575.000
21605300.000 4583530.000 -835.000
21605600.000 4582370.000 -1505.000
21605000.000 4585130.000 320.000
21604750.000 4585065.000 323.750
21604325.000 4584535.000 42.500
21604500.000 4585000.000 327.500
21604000.000 4584870.000 335.000
21604250.000 4584935.000 331.250
21605550.000 4582355.000 -1540.000

POLYGONS 212 848
3 97 92 98
3 94 95 93
3 108 103 106
3 54 53 50
3 115 114 3
3 36 35 30
3 0 1 2
3 96 95 92
3 119 118 117
3 91 89 92
3 53 52 50
3 41 40 36
3 117 118 25
3 28 27 24
3 5 1 0
3 6 4 12
3 56 59 58
3 102 101 100
3 23 19 24
3 99 96 97
3 73 67 68
3 40 44 46
3 86 84 68
3 51 63 57
3 19 18 2
3 15 130 129
3 73 72 67
3 84 85 83
3 111 116 112
3 91 87 89
3 68 66 43
3 66 64 43
3 58 61 60
3 143 145 144
3 14 128 15
3 50 49 45
3 64 63 51
3 145 147 144
3 6 8 5
3 111 106 107
3 19 110 111
3 112 19 111
3 13 146 10
3 103 100 104
3 30 29 25
3 116 120 117
3 87 88 84
3 89 41 90
3 134 129 135
3 131 133 136
3 107 104 105
3 133 132 137
3 74 73 75
3 44 47 46
3 72 71 67
3 4 2 14
3 9 7 8
3 84 124 125
3 140 142 136
3 73 68 80
3 68 83 82
3 64 51 43
3 56 55 51
3 32 30 33
3 138 139 148
3 31 30 25
3 17 127 14
3 8 6 10
3 104 100 105
3 119 123 90
3 24 27 26
3 73 79 78
3 25 19 117
3 102 100 103
3 45 48 44
3 12 13 10
3 122 121 90
3 76 73 77
3 68 84 83
3 12 15 129
3 99 97 100
3 22 21 18
3 120 111 107
3 23 24 26
3 51 45 42
3 120 123 119
3 64 65 63
3 144 131 136
3 44 40 42
3 55 50 51
3 85 84 126
3 108 106 109
3 107 98 123
3 73 80 79
3 40 39 36
3 133 137 138
3 36 38 37
3 42 45 44
3 95 94 92
3 32 29 30
3 111 110 106
3 133 140 136
3 34 33 30
3 86 68 43
3 129 132 131
3 42 41 43
3 132 133 131
3 119 90 121
3 133 138 140
3 110 19 3
3 70 69 67
3 24 19 25
3 119 117 120
3 41 86 43
3 1 115 3
3 68 67 66
3 9 10 11
3 98 89 90
3 40 41 42
3 65 64 66
3 4 14 12
3 0 6 5
3 4 6 0
3 49 50 52
3 41 122 90
3 106 104 107
3 56 57 59
3 118 119 121
3 123 98 90
3 103 104 106
3 105 97 98
3 86 41 87
3 2 16 14
3 131 13 12
3 147 146 144
3 137 139 138
3 86 87 84
3 2 1 3
3 37 35 36
3 48 47 44
3 93 87 91
3 16 17 14
3 39 38 36
3 57 63 62
3 3 19 2
3 93 95 87
3 29 28 25
3 73 78 77
3 89 87 41
3 19 112 117
3 100 97 105
3 6 12 10
3 68 81 80
3 142 143 136
3 127 128 14
3 31 41 36
3 7 5 8
3 51 57 56
3 112 116 117
3 118 31 25
3 141 138 148
3 65 66 67
3 75 73 76
3 69 65 67
3 36 30 31
3 20 16 18
3 74 72 73
3 120 107 123
3 100 101 99
3 93 91 94
3 146 11 10
3 57 62 59
3 8 10 9
3 121 122 31
3 141 140 138
3 146 13 131
3 114 113 3
3 129 131 12
3 96 92 97
3 50 45 51
3 45 49 48
3 88 124 84
3 105 98 107
3 20 18 21
3 113 110 3
3 110 109 106
3 134 132 129
3 91 92 94
3 71 70 67
3 16 2 18
3 118 121 31
3 92 89 98
3 81 68 82
3 111 120 116
3 55 54 50
3 14 15 12
3 84 125 126
3 0 2 4
3 51 42 43
3 101 96 99
3 23 22 18
3 35 34 30
3 7 1 5
3 55 56 58
3 136 143 144
3 130 135 129
3 28 24 25
3 19 23 18
3 61 58 59
3 58 60 55
3 122 41 31
3 144 146 131

POINT_DATA 149
COLOR_SCALARS GocadColor 4
0.0930037 0.0930037 0.439216 1
0.0930037 0.0930037 0.439216 1
0.0930037 0.0930037 0.439216 1
0.0930037 0.0930037 0.439216 1
0.0930037 0.0930037 0.439216 1
0.0930037 0.0930037 0.439216 1
0.0930037 0.0930037 0.439216 1
0.0930037 0.0930037 0.439216 1
0.0930037 0.0930037 0.439216 1
0.0930037 0.0930037 0.439216 1
0.0930037 0.0930037 0.439216 1
0.0930037 0.0930037 0.439216 1
0.0930037 0.0930037 0.439216 1
0.0930037 0.0930037 0.439216 1
0.0930037 0.0930037 0.439216 1
0.0930037 0.0930037 0.439216 1
0.0930037 0.0930037 0.439216 1
0.0930037 0.0930037 0.439216 1
0.0930037 0.0930037 0.439216 1
0.0930037 0.0930037 0.439216 1
0.0930037 0.0930037 0.439216 1
0.0930037 0.0930037 0.439216 1
0.0930037 0.0930037 0.439216 1
0.0930037 0.0930037 0.439216 1
0.0930037 0.0930037 0.439216 1
0.0930037 0.0930037 0.439216 1
0.0930037 0.0930037 0.439216 1
0.0930037 0.0930037 0.439216 1
0.0930037 0.0930037 0.439216 1
0.0930037 0.0930037 0.439216 1
0.0930037 0.0930037 0.439216 1
0.0930037 0.0930037 0.439216 1
0.0930037 0.0930037 0.439216 1
0.0930037 0.0930037 0.439216 1
0.0930037 0.0930037 0.439216 1
0.0930037 0.0930037 0.439216 1
0.0930037 0.0930037 0.439216 1
0.0930037 0.0930037 0.439216 1
0.0930037 0.0930037 0.439216 1
0.0930037 0.0930037 0.439216 1
0.0930037 0.0930037 0.439216 1
0.0930037 0.0930037 0.439216 1
0.0930037 0.0930037 0.439216 1
0.0930037 0.0930037 0.439216 1
0.0930037 0.0930037 0.439216 1
0.0930037 0.0930037 0.439216 1
0.0930037 0.0930037 0.439216 1
0.0930037 0.0930037 0.439216 1
0.0930037 0.0930037 0.439216 1
0.0930037 0.0930037 0.439216 1
0.0930037 0.0930037 0.439216 1
0.0930037 0.0930037 0.439216 1
0.0930037 0.0930037 0.439216 1
0.0930037 0.0930037 0.439216 1
0.0930037 0.0930037 0.439216 1
0.0930037 0.0930037 0.439216 1
0.0930037 0.0930037 0.439216 1
0.0930037 0.0930037 0.439216 1
0.0930037 0.0930037 0.439216 1
0.0930037 0.0930037 0.439216 1
0.0930037 0.0930037 0.439216 1
0.0930037 0.0930037 0.439216 1
0.0930037 0.0930037 0.439216 1
0.0930037 0.0930037 0.439216 1
0.0930037 0.0930037 0.439216 1
0.0930037 0.0930037 0.439216 1
0.0930037 0.0930037 0.439216 1
0.0930037 0.0930037 0.439216 1
0.0930037 0.0930037 0.439216 1
0.0930037 0.0930037 0.439216 1
0.0930037 0.0930037 0.439216 1
0.0930037 0.0930037 0.439216 1
0.0930037 0.0930037 0.439216 1
0.0930037 0.0930037 0.439216 1
0.0930037 0.0930037 0.439216 1
0.0930037 0.0930037 0.439216 1
0.0930037 0.0930037 0.439216 1
0.0930037 0.0930037 0.439216 1
0.0930037 0.0930037 0.439216 1
0.0930037 0.0930037 0.439216 1
0.0930037 0.0930037 0.439216 1
0.0930037 0.0930037 0.439216 1
0.0930037 0.0930037 0.439216 1
0.0930037 0.0930037 0.439216 1
0.0930037 0.0930037 0.439216 1
0.0930037 0.0930037 0.439216 1
0.0930037 0.0930037 0.439216 1
0.0930037 0.0930037 0.439216 1
0.0930037 0.0930037 0.439216 1
0.0930037 0.0930037 0.439216 1
0.0930037 0.0930037 0.439216 1
0.0930037 0.0930037 0.439216 1
0.0930037 0.0930037 0.439216 1
0.0930037 0.0930037 0.439216 1
0.0930037 0.0930037 0.439216 1
0.0930037 0.0930037 0.439216 1
0.0930037 0.0930037 0.439216 1
0.0930037 0.0930037 0.439216 1
0.0930037 0.0930037 0.439216 1
0.0930037 0.0930037 0.439216 1
0.0930037 0.0930037 0.439216 1
0.0930037 0.0930037 0.439216 1
0.0930037 0.0930037 0.439216 1
0.0930037 0.0930037 0.439216 1
0.0930037 0.0930037 0.439216 1
0.0930037 0.0930037 0.439216 1
0.0930037 0.0930037 0.439216 1
0.0930037 0.0930037 0.439216 1
0.0930037 0.0930037 0.439216 1
0.0930037 0.0930037 0.439216 1
0.0930037 0.0930037 0.439216 1
0.0930037 0.0930037 0.439216 1
0.0930037 0.0930037 0.439216 1
0.0930037 0.0930037 0.439216 1
0.0930037 0.0930037 0.439216 1
0.0930037 0.0930037 0.439216 1
0.0930037 0.0930037 0.439216 1
0.0930037 0.0930037 0.439216 1
0.0930037 0.0930037 0.439216 1
0.0930037 0.0930037 0.439216 1
0.0930037 0.0930037 0.439216 1
0.0930037 0.0930037 0.439216 1
0.0930037 0.0930037 0.439216 1
0.0930037 0.0930037 0.439216 1
0.0930037 0.0930037 0.439216 1
0.0930037 0.0930037 0.439216 1
0.0930037 0.0930037 0.439216 1
0.0930037 0.0930037 0.439216 1
0.0930037 0.0930037 0.439216 1
0.0930037 0.0930037 0.439216 1
0.0930037 0.0930037 0.439216 1
0.0930037 0.0930037 0.439216 1
0.0930037 0.0930037 0.439216 1
0.0930037 0.0930037 0.439216 1
0.0930037 0.0930037 0.439216 1
0.0930037 0.0930037 0.439216 1
0.0930037 0.0930037 0.439216 1
0.0930037 0.0930037 0.439216 1
0.0930037 0.0930037 0.439216 1
0.0930037 0.0930037 0.439216 1
0.0930037 0.0930037 0.439216 1
0.0930037 0.0930037 0.439216 1
0.0930037 0.0930037 0.439216 1
0.0930037 0.0930037 0.439216 1
0.0930037 0.0930037 0.439216 1
0.0930037 0.0930037 0.439216 1
0.0930037 0.0930037 0.439216 1
0.0930037 0.0930037 0.439216 1
0.0930037 0.0930037 0.439216 1

