# vtk DataFile Version 3.0
Gocad TSurf to VTK
ASCII
DATASET POLYDATA
POINTS 788 float
21559875.000 4558065.000 166.250
21560350.000 4557912.500 82.500
21559850.000 4558340.000 162.500
21559825.000 4558622.500 158.750
21559900.000 4557790.000 170.000
21562225.000 4557362.500 -292.500
21560200.000 4557462.500 170.000
21561700.000 4558280.000 -180.000
21563150.000 4557562.500 -486.250
21559800.000 4558900.000 155.000
21561300.000 4558905.000 -137.500
21562450.000 4559335.000 -250.000
21560075.000 4559057.500 92.500
21560800.000 4560090.000 7.500
21559850.000 4559160.000 143.750
21559950.000 4559680.000 121.250
21560000.000 4559940.000 110.000
21559800.000 4558900.000 155.000
21560175.000 4560117.500 110.000
21560350.000 4560295.000 110.000
21560700.000 4560650.000 110.000
21562250.000 4559657.500 -200.000
21560525.000 4560472.500 110.000
21560000.000 4559940.000 110.000
21562575.000 4559517.500 -242.500
21562200.000 4560455.000 -47.500
21563150.000 4560232.500 -175.000
21561200.000 4560930.000 125.000
21561450.000 4561070.000 132.500
21561700.000 4561210.000 140.000
21563550.000 4560840.000 -267.500
21563700.000 4560770.000 -295.000
21561925.000 4561410.000 122.500
21562775.000 4561610.000 13.750
21562375.000 4561810.000 87.500
21562375.000 4561810.000 87.500
21562600.000 4562010.000 70.000
21563500.000 4561470.000 -225.000
21563900.000 4561767.500 -155.000
21563800.000 4561270.000 -380.000
21563225.000 4562172.500 66.250
21563850.000 4562335.000 62.500
21563225.000 4562172.500 66.250
21564450.000 4561965.000 -162.500
21564475.000 4562497.500 58.750
21564350.000 4561512.500 -312.500
21564700.000 4561825.000 -182.500
21564750.000 4561190.000 -353.750
21564850.000 4562277.500 -67.500
21565100.000 4562660.000 55.000
21565650.000 4561590.000 -221.250
21566100.000 4561790.000 -155.000
21565600.000 4560582.500 -243.750
21565800.000 4562345.000 -27.500
21566600.000 4562060.000 -210.000
21565200.000 4562720.000 66.250
21565400.000 4562840.000 88.750
21565200.000 4562722.500 66.250
21565300.000 4562785.000 77.500
21565500.000 4562910.000 100.000
21566325.000 4563360.000 141.250
21566600.000 4562785.000 -27.500
21566325.000 4563360.000 141.250
21566600.000 4563510.000 155.000
21567275.000 4562472.500 -157.500
21567350.000 4564200.000 196.250
21568375.000 4563157.500 -102.500
21568325.000 4562292.500 -277.500
21567600.000 4564430.000 210.000
21568650.000 4564335.000 90.000
21569375.000 4563887.500 -67.500
21568250.000 4564745.000 202.500
21568575.000 4564895.000 198.750
21567925.000 4564585.000 206.250
21568575.000 4564902.500 198.750
21568900.000 4565050.000 195.000
21569800.000 4564105.000 -71.250
21568900.000 4565060.000 195.000
21569050.000 4565112.500 222.500
21569200.000 4564907.500 138.750
21569350.000 4565217.500 277.500
21569350.000 4565217.500 277.500
21569500.000 4565270.000 305.000
21569800.000 4564622.500 26.250
21569775.000 4565280.000 340.000
21570225.000 4564687.500 88.750
21569775.000 4565280.000 340.000
21570050.000 4565290.000 375.000
21570475.000 4565102.500 326.250
21570375.000 4564487.500 -228.750
21570325.000 4565300.000 410.000
21570600.000 4565310.000 445.000
21570325.000 4565300.000 410.000
21570925.000 4564502.500 -626.250
21571025.000 4564355.000 -710.000
21570675.000 4564045.000 -480.000
21571200.000 4565050.000 -210.000
21571375.000 4564530.000 -858.750
21570900.000 4565450.000 425.000
21571050.000 4565520.000 415.000
21571200.000 4565590.000 405.000
21571900.000 4564970.000 -636.250
21571900.000 4565350.000 -312.500
21572900.000 4564730.000 -460.000
21571725.000 4565987.500 352.500
21571900.000 4566110.000 350.000
21572600.000 4565952.500 72.500
21571900.000 4566120.000 335.000
21572350.000 4566322.500 282.500
21572350.000 4566322.500 282.500
21572500.000 4566390.000 265.000
21572875.000 4566132.500 37.500
21573625.000 4565677.500 -387.500
21572600.000 4566502.500 280.000
21572700.000 4566615.000 272.500
21572600.000 4566502.500 268.750
21572800.000 4566727.500 280.000
21572800.000 4566727.500 276.250
21572900.000 4566840.000 280.000
21573200.000 4566685.000 56.250
21574100.000 4566220.000 -615.000
21573000.000 4566927.500 286.250
21573100.000 4567020.000 292.500
21573000.000 4566930.000 286.250
21573200.000 4567110.000 298.750
21573300.000 4567200.000 305.000
21574000.000 4566825.000 -155.000
21574700.000 4566520.000 -570.000
21573450.000 4567257.500 305.000
21573450.000 4567257.500 305.000
21573450.000 4567250.000 305.000
21573300.000 4567190.000 305.000
21573450.000 4567250.000 305.000
21573950.000 4567127.500 75.000
21573600.000 4567315.000 305.000
21573900.000 4567440.000 305.000
21573600.000 4567320.000 305.000
21573750.000 4567380.000 305.000
21574200.000 4567680.000 320.000
21574600.000 4567220.000 -117.500
21574350.000 4567797.500 327.500
21574500.000 4567920.000 335.000
21574350.000 4567800.000 327.500
21575650.000 4567270.000 -250.000
21574800.000 4567917.500 325.000
21575800.000 4566690.000 -760.000
21576200.000 4566810.000 -690.000
21575150.000 4566575.000 -682.500
21575450.000 4565917.500 -1181.250
21574750.000 4566187.500 -766.250
21575025.000 4565335.000 -1343.750
21574800.000 4565865.000 -962.500
21576175.000 4565647.500 -1491.250
21575725.000 4564522.500 -1906.250
21576350.000 4566335.000 -1045.000
21576975.000 4565822.500 -1322.500
21577200.000 4565830.000 -1285.000
21577200.000 4566565.000 -1305.000
21577125.000 4565630.000 -1448.750
21576900.000 4565595.000 -1522.500
21577950.000 4564517.500 -2070.000
21577600.000 4564665.000 -2042.500
21578200.000 4564490.000 -2105.000
21578025.000 4564427.500 -2046.250
21578100.000 4565057.500 -2168.750
21578250.000 4564927.500 -2391.250
21577350.000 4566062.500 -1553.750
21578000.000 4565625.000 -2232.500
21577200.000 4566932.500 -1315.000
21577800.000 4566760.000 -2360.000
21577000.000 4567192.500 -1157.500
21577300.000 4567387.500 -1161.250
21576400.000 4567410.000 -180.000
21576400.000 4567950.000 295.000
21576700.000 4567877.500 53.750
21576050.000 4567930.000 295.000
21576225.000 4567940.000 295.000
21575875.000 4567920.000 295.000
21575700.000 4567910.000 295.000
21575875.000 4567920.000 295.000
21575400.000 4567912.500 305.000
21577400.000 4567475.000 -997.500
21576550.000 4567987.500 308.750
21576550.000 4567987.500 308.750
21576700.000 4568025.000 322.500
21576850.000 4568062.500 336.250
21577000.000 4568100.000 350.000
21577600.000 4567810.000 -376.250
21577150.000 4568140.000 388.750
21577600.000 4567960.000 -82.500
21577150.000 4568140.000 388.750
21577205.141 4568154.703 402.993
21577205.141 4568154.703 402.993
21577313.406 4568170.172 404.715
21577386.578 4568180.625 405.879
21577464.594 4568194.711 412.872
21577600.000 4568219.156 425.012
21578100.000 4567890.000 -825.000
21577975.000 4567830.000 -786.250
21577628.969 4568238.563 427.943
21578300.000 4567700.000 -1355.000
21578325.000 4567552.500 -1483.750
21578600.000 4567235.000 -1982.500
21578800.000 4567360.000 -2095.000
21578900.000 4567152.500 -2321.250
21579000.000 4566945.000 -2547.500
21579400.000 4566880.000 -2890.000
21579350.000 4566792.500 -2917.500
21579475.000 4566710.000 -3022.500
21579300.000 4566705.000 -2945.000
21579200.000 4566530.000 -3000.000
21579550.000 4566540.000 -3155.000
21579625.000 4566370.000 -3287.500
21579575.000 4566645.000 -3060.000
21579600.000 4566627.500 -3063.750
21579800.000 4566375.000 -3237.500
21579925.000 4566175.000 -3400.000
21579700.000 4566200.000 -3420.000
21580000.000 4566122.500 -3411.250
21580100.000 4565940.000 -3570.000
21580200.000 4565870.000 -3585.000
21579925.000 4565820.000 -3707.500
21579850.000 4565872.500 -3696.250
21579650.000 4565770.000 -3830.000
21579600.000 4565805.000 -3822.500
21579550.000 4566067.500 -3583.750
21579375.000 4565720.000 -3952.500
21579400.000 4565935.000 -3747.500
21579100.000 4565670.000 -4075.000
21578725.000 4566230.000 -3292.500
21579375.000 4566210.000 -3377.500
21578400.000 4566240.000 -3250.000
21578875.000 4565375.000 -3582.500
21578800.000 4566385.000 -3125.000
21578150.000 4566702.500 -2520.000
21579000.000 4566457.500 -3062.500
21578850.000 4566587.500 -2840.000
21578100.000 4566935.000 -2115.000
21577500.000 4567252.500 -1461.250
21577900.000 4566192.500 -2296.250
21578350.000 4565802.500 -2963.750
21578425.000 4564785.000 -2597.500
21578300.000 4565365.000 -2677.500
21578650.000 4565080.000 -3090.000
21578100.000 4564332.500 -1986.250
21577850.000 4564365.000 -1987.500
21577700.000 4564545.000 -2035.000
21577675.000 4564302.500 -1928.750
21577450.000 4564572.500 -2000.000
21577300.000 4564752.500 -2011.250
21577200.000 4564600.000 -1965.000
21577050.000 4565430.000 -1612.500
21577050.000 4565087.500 -1806.250
21576975.000 4565237.500 -1776.250
21577000.000 4564840.000 -1980.000
21576900.000 4565030.000 -1940.000
21576650.000 4564815.000 -1940.000
21576500.000 4564975.000 -1850.000
21576750.000 4565477.500 -1641.250
21576825.000 4564277.500 -1976.250
21576200.000 4564275.000 -2065.000
21576850.000 4564505.000 -1980.000
21576925.000 4564672.500 -1980.000
21576950.000 4564385.000 -1972.500
21577100.000 4564220.000 -1952.500
21577075.000 4564492.500 -1968.750
21577150.000 4564410.000 -1958.750
21577300.000 4564020.000 -1905.000
21577050.000 4564030.000 -1946.250
21577500.000 4564240.000 -1870.000
21577625.000 4563845.000 -1707.500
21577900.000 4564017.500 -1748.750
21577800.000 4563860.000 -1630.000
21578000.000 4564175.000 -1867.500
21578050.000 4564135.000 -1832.500
21578125.000 4564312.500 -1968.750
21577975.000 4563957.500 -1696.250
21577900.000 4563780.000 -1560.000
21577775.000 4563695.000 -1606.250
21577700.000 4563755.000 -1658.750
21577650.000 4563610.000 -1652.500
21577600.000 4563650.000 -1687.500
21577525.000 4563525.000 -1698.750
21577500.000 4563545.000 -1716.250
21577450.000 4563830.000 -1785.000
21577400.000 4563440.000 -1745.000
21577275.000 4563815.000 -1862.500
21576900.000 4563670.000 -2002.500
21577250.000 4563327.500 -1811.250
21576950.000 4563395.000 -1975.000
21576850.000 4563510.000 -2065.000
21577100.000 4563215.000 -1877.500
[...]
POINT_DATA 788
COLOR_SCALARS GocadColor 4
1 0.74902 0.795026 1
1 0.74902 0.795026 1
1 0.74902 0.795026 1
1 0.74902 0.795026 1
1 0.74902 0.795026 1
1 0.74902 0.795026 1
1 0.74902 0.795026 1
1 0.74902 0.795026 1
1 0.74902 0.795026 1
1 0.74902 0.795026 1
1 0.74902 0.795026 1
1 0.74902 0.795026 1
1 0.74902 0.795026 1
1 0.74902 0.795026 1
1 0.74902 0.795026 1
1 0.74902 0.795026 1
1 0.74902 0.795026 1
1 0.74902 0.795026 1
1 0.74902 0.795026 1
1 0.74902 0.795026 1
1 0.74902 0.795026 1
1 0.74902 0.795026 1
1 0.74902 0.795026 1
1 0.74902 0.795026 1
1 0.74902 0.795026 1
1 0.74902 0.795026 1
1 0.74902 0.795026 1
1 0.74902 0.795026 1
1 0.74902 0.795026 1
1 0.74902 0.795026 1
1 0.74902 0.795026 1
1 0.74902 0.795026 1
1 0.74902 0.795026 1
1 0.74902 0.795026 1
1 0.74902 0.795026 1
1 0.74902 0.795026 1
1 0.74902 0.795026 1
1 0.74902 0.795026 1
1 0.74902 0.795026 1
1 0.74902 0.795026 1
1 0.74902 0.795026 1
1 0.74902 0.795026 1
1 0.74902 0.795026 1
1 0.74902 0.795026 1
1 0.74902 0.795026 1
1 0.74902 0.795026 1
1 0.74902 0.795026 1
1 0.74902 0.795026 1
1 0.74902 0.795026 1
1 0.74902 0.795026 1
1 0.74902 0.795026 1
1 0.74902 0.795026 1
1 0.74902 0.795026 1
1 0.74902 0.795026 1
1 0.74902 0.795026 1
1 0.74902 0.795026 1
1 0.74902 0.795026 1
1 0.74902 0.795026 1
1 0.74902 0.795026 1
1 0.74902 0.795026 1
1 0.74902 0.795026 1
1 0.74902 0.795026 1
1 0.74902 0.795026 1
1 0.74902 0.795026 1
1 0.74902 0.795026 1
1 0.74902 0.795026 1
1 0.74902 0.795026 1
1 0.74902 0.795026 1
1 0.74902 0.795026 1
1 0.74902 0.795026 1
1 0.74902 0.795026 1
1 0.74902 0.795026 1
1 0.74902 0.795026 1
1 0.74902 0.795026 1
1 0.74902 0.795026 1
1 0.74902 0.795026 1
1 0.74902 0.795026 1
1 0.74902 0.795026 1
1 0.74902 0.795026 1
1 0.74902 0.795026 1
1 0.74902 0.795026 1
1 0.74902 0.795026 1
1 0.74902 0.795026 1
1 0.74902 0.795026 1
1 0.74902 0.795026 1
1 0.74902 0.795026 1
1 0.74902 0.795026 1
1 0.74902 0.795026 1
1 0.74902 0.795026 1
1 0.74902 0.795026 1
1 0.74902 0.795026 1
1 0.74902 0.795026 1
1 0.74902 0.795026 1
1 0.74902 0.795026 1
1 0.74902 0.795026 1
1 0.74902 0.795026 1
1 0.74902 0.795026 1
1 0.74902 0.795026 1
1 0.74902 0.795026 1
1 0.74902 0.795026 1
1 0.74902 0.795026 1
1 0.74902 0.795026 1
1 0.74902 0.795026 1
1 0.74902 0.795026 1
1 0.74902 0.795026 1
1 0.74902 0.795026 1
1 0.74902 0.795026 1
1 0.74902 0.795026 1
1 0.74902 0.795026 1
1 0.74902 0.795026 1
1 0.74902 0.795026 1
1 0.74902 0.795026 1
1 0.74902 0.795026 1
1 0.74902 0.795026 1
1 0.74902 0.795026 1
1 0.74902 0.795026 1
1 0.74902 0.795026 1
1 0.74902 0.795026 1
1 0.74902 0.795026 1
1 0.74902 0.795026 1
1 0.74902 0.795026 1
1 0.74902 0.795026 1
1 0.74902 0.795026 1
1 0.74902 0.795026 1
1 0.74902 0.795026 1
1 0.74902 0.795026 1
1 0.74902 0.795026 1
1 0.74902 0.795026 1
1 0.74902 0.795026 1
1 0.74902 0.795026 1
1 0.74902 0.795026 1
1 0.74902 0.795026 1
1 0.74902 0.795026 1
1 0.74902 0.795026 1
1 0.74902 0.795026 1
1 0.74902 0.795026 1
1 0.74902 0.795026 1
1 0.74902 0.795026 1
1 0.74902 0.795026 1
1 0.74902 0.795026 1
1 0.74902 0.795026 1
1 0.74902 0.795026 1
1 0.74902 0.795026 1
1 0.74902 0.795026 1
1 0.74902 0.795026 1
1 0.74902 0.795026 1
1 0.74902 0.795026 1
1 0.74902 0.795026 1
1 0.74902 0.795026 1
1 0.74902 0.795026 1
1 0.74902 0.795026 1
1 0.74902 0.795026 1
1 0.74902 0.795026 1
1 0.74902 0.795026 1
1 0.74902 0.795026 1
1 0.74902 0.795026 1
1 0.74902 0.795026 1
1 0.74902 0.795026 1
1 0.74902 0.795026 1
1 0.74902 0.795026 1
1 0.74902 0.795026 1
1 0.74902 0.795026 1
1 0.74902 0.795026 1
1 0.74902 0.795026 1
1 0.74902 0.795026 1
1 0.74902 0.795026 1
1 0.74902 0.795026 1
1 0.74902 0.795026 1
1 0.74902 0.795026 1
1 0.74902 0.795026 1
1 0.74902 0.795026 1
1 0.74902 0.795026 1
1 0.74902 0.795026 1
1 0.74902 0.795026 1
1 0.74902 0.795026 1
1 0.74902 0.795026 1
1 0.74902 0.795026 1
1 0.74902 0.795026 1
1 0.74902 0.795026 1
1 0.74902 0.795026 1
1 0.74902 0.795026 1
1 0.74902 0.795026 1
1 0.74902 0.795026 1
1 0.74902 0.795026 1
1 0.74902 0.795026 1
1 0.74902 0.795026 1
1 0.74902 0.795026 1
1 0.74902 0.795026 1
1 0.74902 0.795026 1
1 0.74902 0.795026 1
1 0.74902 0.795026 1
1 0.74902 0.795026 1
1 0.74902 0.795026 1
1 0.74902 0.795026 1
1 0.74902 0.795026 1
1 0.74902 0.795026 1
1 0.74902 0.795026 1
1 0.74902 0.795026 1
1 0.74902 0.795026 1
1 0.74902 0.795026 1
1 0.74902 0.795026 1
1 0.74902 0.795026 1
1 0.74902 0.795026 1
1 0.74902 0.795026 1
1 0.74902 0.795026 1
1 0.74902 0.795026 1
1 0.74902 0.795026 1
1 0.74902 0.795026 1
1 0.74902 0.795026 1
1 0.74902 0.795026 1
1 0.74902 0.795026 1
1 0.74902 0.795026 1
1 0.74902 0.795026 1
1 0.74902 0.795026 1
1 0.74902 0.795026 1
1 0.74902 0.795026 1
1 0.74902 0.795026 1
1 0.74902 0.795026 1
1 0.74902 0.795026 1
1 0.74902 0.795026 1
1 0.74902 0.795026 1
1 0.74902 0.795026 1
1 0.74902 0.795026 1
1 0.74902 0.795026 1
1 0.74902 0.795026 1
1 0.74902 0.795026 1
1 0.74902 0.795026 1
1 0.74902 0.795026 1
1 0.74902 0.795026 1
1 0.74902 0.795026 1
1 0.74902 0.795026 1
1 0.74902 0.795026 1
1 0.74902 0.795026 1
1 0.74902 0.795026 1
1 0.74902 0.795026 1
1 0.74902 0.795026 1
1 0.74902 0.795026 1
1 0.74902 0.795026 1
1 0.74902 0.795026 1
1 0.74902 0.795026 1
1 0.74902 0.795026 1
1 0.74902 0.795026 1
1 0.74902 0.795026 1
1 0.74902 0.795026 1
1 0.74902 0.795026 1
1 0.74902 0.795026 1
1 0.74902 0.795026 1
1 0.74902 0.795026 1
1 0.74902 0.795026 1
1 0.74902 0.795026 1
1 0.74902 0.795026 1
1 0.74902 0.795026 1
1 0.74902 0.795026 1
1 0.74902 0.795026 1
1 0.74902 0.795026 1
1 0.74902 0.795026 1
1 0.74902 0.795026 1
1 0.74902 0.795026 1
1 0.74902 0.795026 1
1 0.74902 0.795026 1
1 0.74902 0.795026 1
1 0.74902 0.795026 1
1 0.74902 0.795026 1
1 0.74902 0.795026 1
1 0.74902 0.795026 1
1 0.74902 0.795026 1
1 0.74902 0.795026 1
1 0.74902 0.795026 1
1 0.74902 0.795026 1
1 0.74902 0.795026 1
1 0.74902 0.795026 1
1 0.74902 0.795026 1
1 0.74902 0.795026 1
1 0.74902 0.795026 1
1 0.74902 0.795026 1
1 0.74902 0.795026 1
1 0.74902 0.795026 1
1 0.74902 0.795026 1
1 0.74902 0.795026 1
1 0.74902 0.795026 1
1 0.74902 0.795026 1
1 0.74902 0.795026 1
1 0.74902 0.795026 1
1 0.74902 0.795026 1
1 0.74902 0.795026 1
1 0.74902 0.795026 1
1 0.74902 0.795026 1
1 0.74902 0.795026 1
1 0.74902 0.795026 1
1 0.74902 0.795026 1
1 0.74902 0.795026 1
1 0.74902 0.795026 1
1 0.74902 0.795026 1
1 0.74902 0.795026 1
1 0.74902 0.795026 1
1 0.74902 0.795026 1
1 0.74902 0.795026 1
1 0.74902 0.795026 1
1 0.74902 0.795026 1
1 0.74902 0.795026 1
1 0.74902 0.795026 1
1 0.74902 0.795026 1
1 0.74902 0.795026 1
1 0.74902 0.795026 1
1 0.74902 0.795026 1
1 0.74902 0.795026 1
1 0.74902 0.795026 1
1 0.74902 0.795026 1
1 0.74902 0.795026 1
1 0.74902 0.795026 1
1 0.74902 0.795026 1
1 0.74902 0.795026 1
1 0.74902 0.795026 1
1 0.74902 0.795026 1
1 0.74902 0.795026 1
1 0.74902 0.795026 1
1 0.74902 0.795026 1
1 0.74902 0.795026 1
1 0.74902 0.795026 1
1 0.74902 0.795026 1
1 0.74902 0.795026 1
1 0.74902 0.795026 1
1 0.74902 0.795026 1
1 0.74902 0.795026 1
1 0.74902 0.795026 1
1 0.74902 0.795026 1
1 0.74902 0.795026 1
1 0.74902 0.795026 1
1 0.74902 0.795026 1
1 0.74902 0.795026 1
1 0.74902 0.795026 1
1 0.74902 0.795026 1
1 0.74902 0.795026 1
1 0.74902 0.795026 1
1 0.74902 0.795026 1
1 0.74902 0.795026 1
1 0.74902 0.795026 1
1 0.74902 0.795026 1
1 0.74902 0.795026 1
1 0.74902 0.795026 1
1 0.74902 0.795026 1
1 0.74902 0.795026 1
1 0.74902 0.795026 1
1 0.74902 0.795026 1
1 0.74902 0.795026 1
1 0.74902 0.795026 1
1 0.74902 0.795026 1
1 0.74902 0.795026 1
1 0.74902 0.795026 1
1 0.74902 0.795026 1
1 0.74902 0.795026 1
1 0.74902 0.795026 1
1 0.74902 0.795026 1
1 0.74902 0.795026 1
1 0.74902 0.795026 1
1 0.74902 0.795026 1
1 0.74902 0.795026 1
1 0.74902 0.795026 1
1 0.74902 0.795026 1
1 0.74902 0.795026 1
1 0.74902 0.795026 1
1 0.74902 0.795026 1
1 0.74902 0.795026 1
1 0.74902 0.795026 1
1 0.74902 0.795026 1
1 0.74902 0.795026 1
1 0.74902 0.795026 1
1 0.74902 0.795026 1
1 0.74902 0.795026 1
1 0.74902 0.795026 1
1 0.74902 0.795026 1
1 0.74902 0.795026 1
1 0.74902 0.795026 1
1 0.74902 0.795026 1
1 0.74902 0.795026 1
1 0.74902 0.795026 1
1 0.74902 0.795026 1
1 0.74902 0.795026 1
1 0.74902 0.795026 1
1 0.74902 0.795026 1
1 0.74902 0.795026 1
1 0.74902 0.795026 1
1 0.74902 0.795026 1
1 0.74902 0.795026 1
1 0.74902 0.795026 1
1 0.74902 0.795026 1
1 0.74902 0.795026 1
1 0.74902 0.795026 1
1 0.74902 0.795026 1
1 0.74902 0.795026 1
1 0.74902 0.795026 1
1 0.74902 0.795026 1
1 0.74902 0.795026 1
1 0.74902 0.795026 1
1 0.74902 0.795026 1
1 0.74902 0.795026 1
1 0.74902 0.795026 1
1 0.74902 0.795026 1
1 0.74902 0.795026 1
1 0.74902 0.795026 1
1 0.74902 0.795026 1
1 0.74902 0.795026 1
1 0.74902 0.795026 1
1 0.74902 0.795026 1
1 0.74902 0.795026 1
1 0.74902 0.795026 1
1 0.74902 0.795026 1
1 0.74902 0.795026 1
1 0.74902 0.795026 1
1 0.74902 0.795026 1
1 0.74902 0.795026 1
1 0.74902 0.795026 1
1 0.74902 0.795026 1
1 0.74902 0.795026 1
1 0.74902 0.795026 1
1 0.74902 0.795026 1
1 0.74902 0.795026 1
1 0.74902 0.795026 1
1 0.74902 0.795026 1
1 0.74902 0.795026 1
1 0.74902 0.795026 1
1 0.74902 0.795026 1
1 0.74902 0.795026 1
1 0.74902 0.795026 1
1 0.74902 0.795026 1
1 0.74902 0.795026 1
1 0.74902 0.795026 1
1 0.74902 0.795026 1
1 0.74902 0.795026 1
1 0.74902 0.795026 1
1 0.74902 0.795026 1
1 0.74902 0.795026 1
1 0.74902 0.795026 1
1 0.74902 0.795026 1
1 0.74902 0.795026 1
1 0.74902 0.795026 1
1 0.74902 0.795026 1
1 0.74902 0.795026 1
1 0.74902 0.795026 1
1 0.74902 0.795026 1
1 0.74902 0.795026 1
1 0.74902 0.795026 1
1 0.74902 0.795026 1
1 0.74902 0.795026 1
1 0.74902 0.795026 1
1 0.74902 0.795026 1
1 0.74902 0.795026 1
1 0.74902 0.795026 1
1 0.74902 0.795026 1
1 0.74902 0.795026 1
1 0.74902 0.795026 1
1 0.74902 0.795026 1
1 0.74902 0.795026 1
1 0.74902 0.795026 1
1 0.74902 0.795026 1
1 0.74902 0.795026 1
1 0.74902 0.795026 1
1 0.74902 0.795026 1
1 0.74902 0.795026 1
1 0.74902 0.795026 1
1 0.74902 0.795026 1
1 0.74902 0.795026 1
1 0.74902 0.795026 1
1 0.74902 0.795026 1
1 0.74902 0.795026 1
1 0.74902 0.795026 1
1 0.74902 0.795026 1
1 0.74902 0.795026 1
1 0.74902 0.795026 1
1 0.74902 0.795026 1
1 0.74902 0.795026 1
1 0.74902 0.795026 1
1 0.74902 0.795026 1
1 0.74902 0.795026 1
1 0.74902 0.795026 1
1 0.74902 0.795026 1
1 0.74902 0.795026 1
1 0.74902 0.795026 1
1 0.74902 0.795026 1
1 0.74902 0.795026 1
1 0.74902 0.795026 1
1 0.74902 0.795026 1
1 0.74902 0.795026 1
1 0.74902 0.795026 1
1 0.74902 0.795026 1
1 0.74902 0.795026 1
1 0.74902 0.795026 1
1 0.74902 0.795026 1
1 0.74902 0.795026 1
1 0.74902 0.795026 1
1 0.74902 0.795026 1
1 0.74902 0.795026 1
1 0.74902 0.795026 1
1 0.74902 0.795026 1
1 0.74902 0.795026 1
1 0.74902 0.795026 1
1 0.74902 0.795026 1
1 0.74902 0.795026 1
1 0.74902 0.795026 1
1 0.74902 0.795026 1
1 0.74902 0.795026 1
1 0.74902 0.795026 1
1 0.74902 0.795026 1
1 0.74902 0.795026 1
1 0.74902 0.795026 1
1 0.74902 0.795026 1
1 0.74902 0.795026 1
1 0.74902 0.795026 1
1 0.74902 0.795026 1
1 0.74902 0.795026 1
1 0.74902 0.795026 1
1 0.74902 0.795026 1
1 0.74902 0.795026 1
1 0.74902 0.795026 1
1 0.74902 0.795026 1
1 0.74902 0.795026 1
1 0.74902 0.795026 1
1 0.74902 0.795026 1
1 0.74902 0.795026 1
1 0.74902 0.795026 1
1 0.74902 0.795026 1
1 0.74902 0.795026 1
1 0.74902 0.795026 1
1 0.74902 0.795026 1
1 0.74902 0.795026 1
1 0.74902 0.795026 1
1 0.74902 0.795026 1
1 0.74902 0.795026 1
1 0.74902 0.795026 1
1 0.74902 0.795026 1
1 0.74902 0.795026 1
1 0.74902 0.795026 1
1 0.74902 0.795026 1
1 0.74902 0.795026 1
1 0.74902 0.795026 1
1 0.74902 0.795026 1
1 0.74902 0.795026 1
1 0.74902 0.795026 1
1 0.74902 0.795026 1
1 0.74902 0.795026 1
1 0.74902 0.795026 1
1 0.74902 0.795026 1
1 0.74902 0.795026 1
1 0.74902 0.795026 1
1 0.74902 0.795026 1
1 0.74902 0.795026 1
1 0.74902 0.795026 1
1 0.74902 0.795026 1
1 0.74902 0.795026 1
1 0.74902 0.795026 1
1 0.74902 0.795026 1
1 0.74902 0.795026 1
1 0.74902 0.795026 1
1 0.74902 0.795026 1
1 0.74902 0.795026 1
1 0.74902 0.795026 1
1 0.74902 0.795026 1
1 0.74902 0.795026 1
1 0.74902 0.795026 1
1 0.74902 0.795026 1
1 0.74902 0.795026 1
1 0.74902 0.795026 1
1 0.74902 0.795026 1
1 0.74902 0.795026 1
1 0.74902 0.795026 1
1 0.74902 0.795026 1
1 0.74902 0.795026 1
1 0.74902 0.795026 1
1 0.74902 0.795026 1
1 0.74902 0.795026 1
1 0.74902 0.795026 1
1 0.74902 0.795026 1
1 0.74902 0.795026 1
1 0.74902 0.795026 1
1 0.74902 0.795026 1
1 0.74902 0.795026 1
1 0.74902 0.795026 1
1 0.74902 0.795026 1
1 0.74902 0.795026 1
1 0.74902 0.795026 1
1 0.74902 0.795026 1
1 0.74902 0.795026 1
1 0.74902 0.795026 1
1 0.74902 0.795026 1
1 0.74902 0.795026 1
1 0.74902 0.795026 1
1 0.74902 0.795026 1
1 0.74902 0.795026 1
1 0.74902 0.795026 1
1 0.74902 0.795026 1
1 0.74902 0.795026 1
1 0.74902 0.795026 1
1 0.74902 0.795026 1
1 0.74902 0.795026 1
1 0.74902 0.795026 1
1 0.74902 0.795026 1
1 0.74902 0.795026 1
1 0.74902 0.795026 1
1 0.74902 0.795026 1
1 0.74902 0.795026 1
1 0.74902 0.795026 1
1 0.74902 0.795026 1
1 0.74902 0.795026 1
1 0.74902 0.795026 1
1 0.74902 0.795026 1
1 0.74902 0.795026 1
1 0.74902 0.795026 1
1 0.74902 0.795026 1
1 0.74902 0.795026 1
1 0.74902 0.795026 1
1 0.74902 0.795026 1
1 0.74902 0.795026 1
1 0.74902 0.795026 1
1 0.74902 0.795026 1
1 0.74902 0.795026 1
1 0.74902 0.795026 1
1 0.74902 0.795026 1
1 0.74902 0.795026 1
1 0.74902 0.795026 1
1 0.74902 0.795026 1
1 0.74902 0.795026 1
1 0.74902 0.795026 1
1 0.74902 0.795026 1
1 0.74902 0.795026 1
1 0.74902 0.795026 1
1 0.74902 0.795026 1
1 0.74902 0.795026 1
1 0.74902 0.795026 1
1 0.74902 0.795026 1
1 0.74902 0.795026 1
1 0.74902 0.795026 1
1 0.74902 0.795026 1
1 0.74902 0.795026 1
1 0.74902 0.795026 1
1 0.74902 0.795026 1
1 0.74902 0.795026 1
1 0.74902 0.795026 1
1 0.74902 0.795026 1
1 0.74902 0.795026 1
1 0.74902 0.795026 1
1 0.74902 0.795026 1
1 0.74902 0.795026 1
1 0.74902 0.795026 1
1 0.74902 0.795026 1
1 0.74902 0.795026 1
1 0.74902 0.795026 1
1 0.74902 0.795026 1
1 0.74902 0.795026 1
1 0.74902 0.795026 1
1 0.74902 0.795026 1
1 0.74902 0.795026 1
1 0.74902 0.795026 1
1 0.74902 0.795026 1
1 0.74902 0.795026 1
1 0.74902 0.795026 1
1 0.74902 0.795026 1
1 0.74902 0.795026 1
1 0.74902 0.795026 1
1 0.74902 0.795026 1
1 0.74902 0.795026 1
1 0.74902 0.795026 1
1 0.74902 0.795026 1
1 0.74902 0.795026 1
1 0.74902 0.795026 1
1 0.74902 0.795026 1
1 0.74902 0.795026 1
1 0.74902 0.795026 1
1 0.74902 0.795026 1
1 0.74902 0.795026 1
1 0.74902 0.795026 1
1 0.74902 0.795026 1
1 0.74902 0.795026 1
1 0.74902 0.795026 1
1 0.74902 0.795026 1
1 0.74902 0.795026 1
1 0.74902 0.795026 1
1 0.74902 0.795026 1
1 0.74902 0.795026 1
1 0.74902 0.795026 1
1 0.74902 0.795026 1
1 0.74902 0.795026 1
1 0.74902 0.795026 1
1 0.74902 0.795026 1
1 0.74902 0.795026 1
1 0.74902 0.795026 1
1 0.74902 0.795026 1
1 0.74902 0.795026 1
1 0.74902 0.795026 1
1 0.74902 0.795026 1
1 0.74902 0.795026 1
1 0.74902 0.795026 1
1 0.74902 0.795026 1
1 0.74902 0.795026 1
1 0.74902 0.795026 1
1 0.74902 0.795026 1
1 0.74902 0.795026 1
1 0.74902 0.795026 1
1 0.74902 0.795026 1
1 0.74902 0.795026 1
1 0.74902 0.795026 1
1 0.74902 0.795026 1
1 0.74902 0.795026 1
1 0.74902 0.795026 1
1 0.74902 0.795026 1
1 0.74902 0.795026 1
1 0.74902 0.795026 1
1 0.74902 0.795026 1
1 0.74902 0.795026 1
1 0.74902 0.795026 1
1 0.74902 0.795026 1
1 0.74902 0.795026 1
1 0.74902 0.795026 1
1 0.74902 0.795026 1
1 0.74902 0.795026 1
1 0.74902 0.795026 1
1 0.74902 0.795026 1
1 0.74902 0.795026 1
1 0.74902 0.795026 1
1 0.74902 0.795026 1
1 0.74902 0.795026 1
1 0.74902 0.795026 1
1 0.74902 0.795026 1
1 0.74902 0.795026 1
1 0.74902 0.795026 1
1 0.74902 0.795026 1
1 0.74902 0.795026 1
1 0.74902 0.795026 1
1 0.74902 0.795026 1
1 0.74902 0.795026 1
1 0.74902 0.795026 1
1 0.74902 0.795026 1
1 0.74902 0.795026 1
1 0.74902 0.795026 1
1 0.74902 0.795026 1
1 0.74902 0.795026 1
1 0.74902 0.795026 1
1 0.74902 0.795026 1
1 0.74902 0.795026 1
1 0.74902 0.795026 1
1 0.74902 0.795026 1
1 0.74902 0.795026 1
1 0.74902 0.795026 1
1 0.74902 0.795026 1
1 0.74902 0.795026 1
1 0.74902 0.795026 1
1 0.74902 0.795026 1
1 0.74902 0.795026 1
1 0.74902 0.795026 1
1 0.74902 0.795026 1
1 0.74902 0.795026 1
1 0.74902 0.795026 1
1 0.74902 0.795026 1
1 0.74902 0.795026 1
1 0.74902 0.795026 1
1 0.74902 0.795026 1
1 0.74902 0.795026 1
1 0.74902 0.795026 1
1 0.74902 0.795026 1
1 0.74902 0.795026 1
1 0.74902 0.795026 1
1 0.74902 0.795026 1
1 0.74902 0.795026 1
1 0.74902 0.795026 1
1 0.74902 0.795026 1
1 0.74902 0.795026 1
1 0.74902 0.795026 1
1 0.74902 0.795026 1
1 0.74902 0.795026 1
1 0.74902 0.795026 1
1 0.74902 0.795026 1
1 0.74902 0.795026 1
1 0.74902 0.795026 1
1 0.74902 0.795026 1
1 0.74902 0.795026 1
1 0.74902 0.795026 1
1 0.74902 0.795026 1
1 0.74902 0.795026 1
1 0.74902 0.795026 1
1 0.74902 0.795026 1
1 0.74902 0.795026 1
1 0.74902 0.795026 1
1 0.74902 0.795026 1
1 0.74902 0.795026 1
1 0.74902 0.795026 1
1 0.74902 0.795026 1
1 0.74902 0.795026 1
1 0.74902 0.795026 1
1 0.74902 0.795026 1

