# vtk DataFile Version 3.0
Gocad TSurf to VTK
ASCII
DATASET POLYDATA
POINTS 191 float
21545800.000 4561567.500 -2607.500
21545200.000 4561155.000 -2580.000
21545675.000 4561612.500 -2572.500
21544950.000 4561245.000 -2510.000
21546400.000 4561980.000 -2635.000
21545300.000 4561105.000 -2572.500
21544750.000 4560667.500 -2541.250
21545850.000 4561542.500 -2603.750
21545450.000 4561045.000 -2545.000
21544975.000 4560577.500 -2500.000
21545925.000 4561512.500 -2590.000
21545700.000 4560960.000 -2510.000
21545350.000 4560450.000 -2447.500
21546050.000 4561470.000 -2572.500
21545900.000 4560870.000 -2462.500
21545650.000 4560315.000 -2376.250
21546150.000 4561425.000 -2548.750
21546100.000 4560760.000 -2510.000
21546450.000 4561260.000 -2620.000
21545750.000 4560260.000 -2400.000
21545825.000 4560200.000 -2407.500
21545400.000 4559760.000 -2290.000
21545925.000 4560142.500 -2382.500
21546250.000 4560640.000 -2525.000
21546025.000 4560067.500 -2345.000
21546450.000 4560525.000 -2475.000
21546650.000 4560375.000 -2400.000
21546975.000 4560907.500 -2567.500
21546675.000 4561080.000 -2642.500
21547275.000 4560682.500 -2455.000
21547500.000 4561290.000 -2660.000
21547100.000 4561520.000 -2760.000
21547900.000 4560990.000 -2510.000
21547875.000 4561702.500 -2567.500
21547825.000 4561730.000 -2557.500
21548175.000 4561477.500 -2455.000
21548250.000 4562115.000 -2475.000
21548225.000 4561447.500 -2455.000
21548450.000 4561965.000 -2400.000
21548325.000 4561405.000 -2445.000
21548550.000 4561905.000 -2400.000
21548400.000 4561367.500 -2427.500
21548750.000 4561820.000 -2380.000
21548900.000 4561745.000 -2345.000
21549175.000 4562235.000 -2315.000
21548875.000 4562362.500 -2345.000
21549400.000 4562122.500 -2262.500
21549600.000 4562650.000 -2250.000
21549900.000 4562500.000 -2180.000
21549200.000 4562820.000 -2290.000
21550025.000 4563380.000 -2245.000
21549875.000 4563470.000 -2245.000
21550325.000 4563252.500 -2215.000
21550850.000 4563940.000 -2200.000
21550325.000 4563202.500 -2221.250
21551050.000 4563755.000 -2192.500
21550325.000 4563137.500 -2218.750
21551050.000 4563625.000 -2187.500
21550550.000 4563025.000 -2166.250
21550550.000 4562960.000 -2145.000
21551200.000 4563420.000 -2110.000
21551200.000 4563550.000 -2152.500
21551850.000 4563880.000 -2075.000
21551850.000 4564075.000 -2138.750
21551775.000 4564112.500 -2156.250
21552500.000 4564340.000 -2040.000
21552500.000 4564600.000 -2125.000
21552750.000 4564672.500 -1918.750
21552750.000 4564867.500 -1982.500
21552500.000 4564860.000 -2135.000
21553000.000 4565005.000 -1797.500
21553000.000 4565135.000 -1840.000
21552750.000 4565062.500 -1990.000
21553250.000 4565337.500 -1676.250
21553250.000 4565402.500 -1697.500
21553000.000 4565265.000 -1845.000
21553500.000 4565670.000 -1555.000
21553250.000 4565467.500 -1700.000
21553250.000 4565517.500 -1693.750
21553000.000 4565365.000 -1832.500
21553250.000 4565555.000 -1705.000
21553000.000 4565390.000 -1840.000
21553500.000 4565720.000 -1570.000
21553250.000 4565615.000 -1705.000
21553000.000 4565430.000 -1840.000
21553500.000 4565800.000 -1570.000
21552750.000 4565245.000 -1975.000
21552750.000 4565225.000 -1975.000
21552500.000 4565060.000 -2110.000
21552750.000 4565212.500 -1971.250
21551775.000 4564457.500 -2145.000
21551775.000 4564307.500 -2163.750
21551675.000 4564500.000 -2155.000
21551050.000 4563855.000 -2180.000
21551625.000 4564530.000 -2155.000
21551575.000 4564557.500 -2145.000
21550750.000 4564000.000 -2200.000
21550650.000 4564055.000 -2180.000
21549725.000 4563552.500 -2215.000
21549000.000 4562940.000 -2290.000
21548800.000 4563050.000 -2250.000
21548725.000 4562452.500 -2345.000
21548625.000 4562527.500 -2382.500
21548475.000 4562610.000 -2352.500
21548150.000 4562170.000 -2455.000
21548375.000 4562667.500 -2377.500
21547950.000 4562285.000 -2505.000
21547525.000 4561902.500 -2632.500
21548300.000 4562727.500 -2370.000
21547800.000 4562405.000 -2490.000
21548200.000 4562782.500 -2346.250
21547600.000 4562515.000 -2442.500
21547300.000 4562082.500 -2610.000
21547000.000 4562247.500 -2538.750
21546800.000 4561760.000 -2730.000
21545000.000 4559940.000 -2385.000
21545275.000 4559662.500 -2317.500
21544500.000 4560110.000 -2455.000
21544850.000 4559847.500 -2423.750
21544200.000 4560230.000 -2510.000
21544250.000 4560065.000 -2517.500
21544600.000 4560742.500 -2552.500
21544000.000 4560330.000 -2525.000
21544225.000 4560877.500 -2447.500
21543500.000 4560510.000 -2385.000
21543825.000 4560230.000 -2545.000
21543975.000 4560182.500 -2542.500
21543450.000 4560365.000 -2440.000
21543350.000 4560407.500 -2430.000
21543650.000 4560130.000 -2565.000
21543950.000 4560035.000 -2560.000
21543400.000 4560220.000 -2495.000
21543475.000 4560030.000 -2585.000
21543925.000 4559887.500 -2577.500
21543350.000 4560075.000 -2550.000
21543200.000 4560305.000 -2475.000
21543300.000 4559930.000 -2605.000
21543050.000 4560202.500 -2520.000
21543900.000 4559740.000 -2595.000
21543275.000 4559555.000 -2397.500
21543975.000 4559862.500 -2573.750
21544050.000 4559985.000 -2552.500
21544350.000 4559735.000 -2532.500
21544300.000 4559900.000 -2525.000
21544400.000 4559570.000 -2540.000
21543650.000 4559427.500 -2356.250
21544425.000 4559705.000 -2518.750
21544450.000 4559840.000 -2497.500
21544550.000 4559662.500 -2501.250
21544900.000 4559370.000 -2400.000
21544025.000 4559277.500 -2251.250
21544925.000 4559512.500 -2396.250
21544700.000 4559755.000 -2462.500
21545025.000 4559467.500 -2372.500
21544950.000 4559655.000 -2392.500
21545150.000 4559565.000 -2345.000
21544975.000 4559797.500 -2388.750
21544475.000 4559975.000 -2476.250
21544125.000 4560107.500 -2531.250
21543150.000 4559185.000 -2102.500
21542900.000 4559285.000 -2172.500
21542275.000 4559092.500 -1953.750
21542150.000 4559142.500 -1988.750
21542650.000 4559370.000 -2200.000
21541400.000 4559000.000 -1805.000
21542025.000 4559185.000 -2002.500
21541875.000 4559232.500 -2005.000
21542350.000 4559465.000 -2205.000
21542825.000 4559697.500 -2405.000
21542150.000 4559550.000 -2185.000
21542525.000 4559825.000 -2375.000
21541775.000 4559275.000 -1995.000
21541950.000 4559615.000 -2150.000
21541675.000 4559307.500 -1977.500
21541675.000 4559307.500 -1977.500
21541950.000 4559615.000 -2150.000
21541675.000 4559330.000 -2000.000
21542225.000 4559922.500 -2322.500
21542225.000 4559922.500 -2322.500
21542500.000 4560230.000 -2495.000
21542900.000 4560100.000 -2565.000
21542750.000 4560300.000 -2467.500
21543000.000 4560370.000 -2440.000
21543250.000 4560440.000 -2412.500
21542225.000 4559930.000 -2330.000
21542200.000 4559942.500 -2332.500
21541950.000 4559630.000 -2165.000
21541900.000 4559655.000 -2170.000
21541600.000 4559367.500 -2007.500
21541400.000 4559030.000 -1835.000
21541300.000 4559080.000 -1845.000

POLYGONS 328 1312
3 23 18 28
3 152 157 118
3 16 13 4
3 48 47 56
3 150 145 144
3 162 164 165
3 106 107 109
3 161 162 160
3 33 104 36
3 137 180 181
3 120 158 119
3 37 38 40
3 17 14 16
3 108 106 109
3 118 157 117
3 66 69 68
3 77 79 78
3 178 184 179
3 125 127 124
3 128 183 124
3 7 0 4
3 118 154 152
3 20 17 23
3 81 79 87
3 89 88 87
3 176 189 188
3 139 136 138
3 112 31 114
3 148 147 152
3 8 9 5
3 132 131 129
3 27 31 30
3 65 62 63
3 130 126 158
3 151 149 148
3 69 88 72
3 148 144 146
3 128 135 183
3 169 177 170
3 34 30 107
3 53 96 94
3 153 151 154
3 181 180 179
3 92 53 94
3 99 49 45
3 68 72 71
3 37 35 38
3 10 8 7
3 40 38 101
3 171 172 169
3 76 73 74
3 68 69 72
3 112 114 113
3 53 50 96
3 80 81 84
3 156 118 115
3 71 75 74
3 108 109 110
3 182 137 181
3 135 137 182
3 147 143 157
3 143 120 157
3 13 14 11
3 177 172 175
3 185 186 187
3 33 30 34
3 69 66 91
3 49 99 51
3 162 165 163
3 168 170 180
3 142 143 147
3 58 56 57
3 104 34 106
3 91 55 93
3 118 117 115
3 47 48 46
3 45 101 99
3 109 107 112
3 102 100 99
3 101 102 99
3 83 82 80
3 178 186 184
3 109 112 111
3 5 6 1
3 90 91 93
3 80 82 76
3 3 121 123
3 105 108 100
3 133 130 141
3 70 68 71
3 166 164 171
3 160 139 145
3 56 47 54
3 11 15 12
3 105 104 106
3 155 156 116
3 150 144 149
3 140 133 141
3 102 38 36
3 2 1 3
3 165 167 163
3 120 143 141
3 54 47 52
3 41 39 42
3 23 17 18
3 143 140 141
3 76 74 77
3 146 144 142
3 39 32 37
3 6 117 119
3 173 164 174
3 152 151 148
3 9 115 117
3 28 114 31
3 17 16 18
3 88 90 92
3 102 103 100
3 130 133 129
3 177 178 179
3 177 175 178
3 15 21 12
3 175 176 186
3 33 34 104
3 137 136 180
3 43 44 46
3 178 175 186
3 22 20 23
3 20 21 19
3 55 57 54
3 24 21 22
3 103 105 100
3 153 149 151
3 66 64 91
3 36 35 33
3 167 169 170
3 116 115 21
3 103 104 105
3 42 45 44
3 170 177 179
3 125 124 122
3 26 27 29
3 106 34 107
3 145 138 144
3 7 5 0
3 49 47 44
3 94 96 95
3 172 174 175
3 88 69 90
3 36 103 102
3 61 57 64
3 133 138 132
3 128 131 135
3 153 154 155
3 183 135 182
3 22 21 20
3 50 51 96
3 9 117 6
3 84 83 80
3 96 51 97
3 132 136 134
3 39 37 40
3 76 78 80
3 107 31 112
3 113 114 4
3 0 5 1
3 175 174 176
3 141 130 158
3 26 25 27
3 121 119 122
3 29 30 32
3 24 22 25
3 165 166 167
3 83 85 82
3 61 60 58
3 52 50 53
3 129 127 125
3 18 4 114
3 132 138 136
3 27 28 31
3 165 164 166
3 148 146 147
3 159 145 150
3 170 179 180
3 161 160 159
3 143 142 140
3 155 154 156
3 25 28 27
3 0 2 4
3 146 142 147
3 7 8 5
3 60 59 58
3 172 173 174
3 116 156 115
3 157 120 117
3 16 14 13
3 6 119 121
3 135 134 137
3 101 38 102
3 162 163 160
3 47 49 50
3 148 149 144
3 127 128 124
3 64 57 55
3 167 170 168
3 33 32 30
3 71 72 75
3 67 68 70
3 75 89 79
3 126 122 119
3 159 160 145
3 69 91 90
3 0 1 2
3 88 94 95
3 12 115 9
3 25 23 28
3 43 42 44
3 44 47 46
3 75 79 77
3 140 138 133
3 91 64 55
3 72 89 75
3 90 93 92
3 132 134 131
3 78 79 81
3 169 172 177
3 59 48 58
3 186 176 187
3 161 164 162
3 72 88 89
3 55 54 52
3 120 119 117
3 19 21 15
3 129 131 127
3 35 32 33
3 93 55 52
3 156 154 118
3 58 48 56
3 67 66 68
3 88 92 94
3 184 185 179
3 42 40 45
3 51 98 97
3 93 53 92
3 127 131 128
3 45 49 44
3 166 169 167
3 36 104 103
3 171 164 173
3 19 14 17
3 20 19 17
3 120 141 158
3 1 6 121
3 13 10 4
3 152 147 157
3 80 78 81
3 126 130 125
3 160 163 139
3 142 144 138
3 51 99 98
3 65 66 67
3 108 110 100
3 76 77 78
3 125 130 129
3 10 7 4
3 5 9 6
3 163 167 168
3 37 32 35
3 63 61 64
3 188 189 190
3 174 189 176
3 139 168 136
3 110 109 111
3 28 18 114
3 99 100 98
3 73 71 74
3 126 125 122
3 142 138 140
3 22 23 25
3 62 60 61
3 41 42 43
3 158 126 119
3 79 89 87
3 14 15 11
3 166 171 169
3 123 122 124
3 50 49 51
3 84 81 86
3 81 87 86
3 107 30 31
3 129 133 132
3 63 62 61
3 13 11 10
3 8 12 9
3 74 75 77
3 87 88 86
3 163 168 139
3 29 27 30
3 154 151 152
3 19 15 14
3 187 176 188
3 168 180 136
3 66 63 64
3 93 52 53
3 38 35 36
3 11 12 8
3 41 32 39
3 174 164 189
3 70 71 73
3 1 121 3
3 18 16 4
3 131 134 135
3 61 58 57
3 171 173 172
3 39 40 42
3 24 25 26
3 105 106 108
3 52 47 50
3 12 21 115
3 96 97 95
3 40 101 45
3 145 139 138
3 57 56 54
3 184 186 185
3 66 65 63
3 134 136 137
3 10 11 8
3 121 122 123
3 111 112 113

POINT_DATA 191
COLOR_SCALARS GocadColor 4
1 0.74902 0.795026 1
1 0.74902 0.795026 1
1 0.74902 0.795026 1
1 0.74902 0.795026 1
1 0.74902 0.795026 1
1 0.74902 0.795026 1
1 0.74902 0.795026 1
1 0.74902 0.795026 1
1 0.74902 0.795026 1
1 0.74902 0.795026 1
1 0.74902 0.795026 1
1 0.74902 0.795026 1
1 0.74902 0.795026 1
1 0.74902 0.795026 1
1 0.74902 0.795026 1
1 0.74902 0.795026 1
1 0.74902 0.795026 1
1 0.74902 0.795026 1
1 0.74902 0.795026 1
1 0.74902 0.795026 1
1 0.74902 0.795026 1
1 0.74902 0.795026 1
1 0.74902 0.795026 1
1 0.74902 0.795026 1
1 0.74902 0.795026 1
1 0.74902 0.795026 1
1 0.74902 0.795026 1
1 0.74902 0.795026 1
1 0.74902 0.795026 1
1 0.74902 0.795026 1
1 0.74902 0.795026 1
1 0.74902 0.795026 1
1 0.74902 0.795026 1
1 0.74902 0.795026 1
1 0.74902 0.795026 1
1 0.74902 0.795026 1
1 0.74902 0.795026 1
1 0.74902 0.795026 1
1 0.74902 0.795026 1
1 0.74902 0.795026 1
1 0.74902 0.795026 1
1 0.74902 0.795026 1
1 0.74902 0.795026 1
1 0.74902 0.795026 1
1 0.74902 0.795026 1
1 0.74902 0.795026 1
1 0.74902 0.795026 1
1 0.74902 0.795026 1
1 0.74902 0.795026 1
1 0.74902 0.795026 1
1 0.74902 0.795026 1
1 0.74902 0.795026 1
1 0.74902 0.795026 1
1 0.74902 0.795026 1
1 0.74902 0.795026 1
1 0.74902 0.795026 1
1 0.74902 0.795026 1
1 0.74902 0.795026 1
1 0.74902 0.795026 1
1 0.74902 0.795026 1
1 0.74902 0.795026 1
1 0.74902 0.795026 1
1 0.74902 0.795026 1
1 0.74902 0.795026 1
1 0.74902 0.795026 1
1 0.74902 0.795026 1
1 0.74902 0.795026 1
1 0.74902 0.795026 1
1 0.74902 0.795026 1
1 0.74902 0.795026 1
1 0.74902 0.795026 1
1 0.74902 0.795026 1
1 0.74902 0.795026 1
1 0.74902 0.795026 1
1 0.74902 0.795026 1
1 0.74902 0.795026 1
1 0.74902 0.795026 1
1 0.74902 0.795026 1
1 0.74902 0.795026 1
1 0.74902 0.795026 1
1 0.74902 0.795026 1
1 0.74902 0.795026 1
1 0.74902 0.795026 1
1 0.74902 0.795026 1
1 0.74902 0.795026 1
1 0.74902 0.795026 1
1 0.74902 0.795026 1
1 0.74902 0.795026 1
1 0.74902 0.795026 1
1 0.74902 0.795026 1
1 0.74902 0.795026 1
1 0.74902 0.795026 1
1 0.74902 0.795026 1
1 0.74902 0.795026 1
1 0.74902 0.795026 1
1 0.74902 0.795026 1
1 0.74902 0.795026 1
1 0.74902 0.795026 1
1 0.74902 0.795026 1
1 0.74902 0.795026 1
1 0.74902 0.795026 1
1 0.74902 0.795026 1
1 0.74902 0.795026 1
1 0.74902 0.795026 1
1 0.74902 0.795026 1
1 0.74902 0.795026 1
1 0.74902 0.795026 1
1 0.74902 0.795026 1
1 0.74902 0.795026 1
1 0.74902 0.795026 1
1 0.74902 0.795026 1
1 0.74902 0.795026 1
1 0.74902 0.795026 1
1 0.74902 0.795026 1
1 0.74902 0.795026 1
1 0.74902 0.795026 1
1 0.74902 0.795026 1
1 0.74902 0.795026 1
1 0.74902 0.795026 1
1 0.74902 0.795026 1
1 0.74902 0.795026 1
1 0.74902 0.795026 1
1 0.74902 0.795026 1
1 0.74902 0.795026 1
1 0.74902 0.795026 1
1 0.74902 0.795026 1
1 0.74902 0.795026 1
1 0.74902 0.795026 1
1 0.74902 0.795026 1
1 0.74902 0.795026 1
1 0.74902 0.795026 1
1 0.74902 0.795026 1
1 0.74902 0.795026 1
1 0.74902 0.795026 1
1 0.74902 0.795026 1
1 0.74902 0.795026 1
1 0.74902 0.795026 1
1 0.74902 0.795026 1
1 0.74902 0.795026 1
1 0.74902 0.795026 1
1 0.74902 0.795026 1
1 0.74902 0.795026 1
1 0.74902 0.795026 1
1 0.74902 0.795026 1
1 0.74902 0.795026 1
1 0.74902 0.795026 1
1 0.74902 0.795026 1
1 0.74902 0.795026 1
1 0.74902 0.795026 1
1 0.74902 0.795026 1
1 0.74902 0.795026 1
1 0.74902 0.795026 1
1 0.74902 0.795026 1
1 0.74902 0.795026 1
1 0.74902 0.795026 1
1 0.74902 0.795026 1
1 0.74902 0.795026 1
1 0.74902 0.795026 1
1 0.74902 0.795026 1
1 0.74902 0.795026 1
1 0.74902 0.795026 1
1 0.74902 0.795026 1
1 0.74902 0.795026 1
1 0.74902 0.795026 1
1 0.74902 0.795026 1
1 0.74902 0.795026 1
1 0.74902 0.795026 1
1 0.74902 0.795026 1
1 0.74902 0.795026 1
1 0.74902 0.795026 1
1 0.74902 0.795026 1
1 0.74902 0.795026 1
1 0.74902 0.795026 1
1 0.74902 0.795026 1
1 0.74902 0.795026 1
1 0.74902 0.795026 1
1 0.74902 0.795026 1
1 0.74902 0.795026 1
1 0.74902 0.795026 1
1 0.74902 0.795026 1
1 0.74902 0.795026 1
1 0.74902 0.795026 1
1 0.74902 0.795026 1
1 0.74902 0.795026 1
1 0.74902 0.795026 1
1 0.74902 0.795026 1
1 0.74902 0.795026 1
1 0.74902 0.795026 1
1 0.74902 0.795026 1
1 0.74902 0.795026 1
1 0.74902 0.795026 1

