# vtk DataFile Version 3.0
Gocad TSurf to VTK
ASCII
DATASET POLYDATA
POINTS 231 float
21615125.000 4575675.000 -401.250
21615000.000 4575740.000 -405.000
21615275.000 4575922.500 -232.500
21615075.000 4576155.000 -131.250
21615350.000 4575775.000 -285.000
21614975.000 4575477.500 -431.250
21615150.000 4575475.000 -417.500
21614800.000 4575480.000 -445.000
21614700.000 4575620.000 -403.750
21615000.000 4575240.000 -390.000
21615025.000 4575012.500 -352.500
21615100.000 4575120.000 -362.500
21614450.000 4574735.000 -327.500
21614400.000 4574420.000 -250.000
21614425.000 4575222.500 -397.500
21613875.000 4574505.000 -297.500
21614650.000 4575545.000 -427.500
21614350.000 4575395.000 -390.000
21613800.000 4575240.000 -350.000
21614500.000 4575610.000 -410.000
21614350.000 4575675.000 -392.500
21614200.000 4575740.000 -375.000
21614600.000 4575760.000 -362.500
21614500.000 4575900.000 -321.250
21614850.000 4575815.000 -373.750
21614700.000 4575890.000 -342.500
21614800.000 4576055.000 -230.000
21614600.000 4576047.500 -255.000
21614225.000 4576052.500 -276.250
21614825.000 4576325.000 -33.750
21614700.000 4576410.000 15.000
21614950.000 4576240.000 -82.500
21614900.000 4576425.000 46.250
21615000.000 4576062.500 -205.000
21615100.000 4576440.000 77.500
21615300.000 4576455.000 108.750
21615500.000 4576470.000 140.000
21615200.000 4576580.000 195.000
21615050.000 4576635.000 222.500
21615375.000 4576557.500 175.000
21615300.000 4576735.000 230.000
21615450.000 4576687.500 205.000
21615600.000 4576640.000 180.000
21615400.000 4576900.000 215.000
21615725.000 4577047.500 156.250
21615150.000 4577330.000 197.500
21616050.000 4576705.000 125.000
21615900.000 4576520.000 152.500
21616800.000 4576907.500 -50.000
21616450.000 4577445.000 -33.750
21616650.000 4576390.000 -55.000
21616200.000 4576097.500 66.250
21616875.000 4576990.000 -27.500
21617000.000 4577480.000 -30.000
21617100.000 4577590.000 0.000
21616850.000 4577780.000 -55.000
21616975.000 4577685.000 -27.500
21616525.000 4578132.500 -72.500
21616950.000 4578100.000 -52.500
21616200.000 4577935.000 -27.500
21615800.000 4577675.000 61.250
21616300.000 4578105.000 -55.000
21616450.000 4578295.000 -35.000
21616100.000 4578087.500 -13.750
21616150.000 4578172.500 -27.500
21616000.000 4578240.000 0.000
21616375.000 4578457.500 2.500
21615600.000 4577690.000 100.000
21615825.000 4578230.000 -3.750
21615050.000 4577670.000 92.500
21615450.000 4577945.000 42.500
21614850.000 4577120.000 225.000
21614925.000 4576975.000 252.500
21614575.000 4577442.500 68.750
21614350.000 4577150.000 110.000
21614950.000 4577932.500 -38.750
21614400.000 4577615.000 -166.250
21615275.000 4578330.000 -45.000
21615475.000 4578210.000 -11.250
21614925.000 4578207.500 -210.000
21615200.000 4578720.000 -135.000
21614800.000 4578210.000 -275.000
21614200.000 4577540.000 -235.000
21614325.000 4577507.500 -133.750
21614300.000 4577280.000 -5.000
21614450.000 4577475.000 -32.500
21614225.000 4577020.000 138.750
21614050.000 4577020.000 52.500
21614200.000 4576750.000 195.000
21614375.000 4576735.000 208.750
21614075.000 4576817.500 116.250
21614100.000 4576630.000 85.000
21613950.000 4576885.000 37.500
21613825.000 4576952.500 -41.250
21613725.000 4576772.500 -50.000
21613700.000 4577020.000 -120.000
21613600.000 4576820.000 -95.000
21613650.000 4576455.000 -180.000
21613200.000 4576430.000 -330.000
21613325.000 4576345.000 -313.750
21613575.000 4576175.000 -281.250
21613000.000 4576170.000 -455.000
21613250.000 4575990.000 -380.000
21613350.000 4576120.000 -317.500
21612825.000 4575765.000 -365.000
21613050.000 4575780.000 -345.000
21612600.000 4575750.000 -385.000
21612700.000 4575625.000 -330.000
21612600.000 4575740.000 -385.000
21612800.000 4575495.000 -275.000
21612700.000 4575617.500 -330.000
21612800.000 4575490.000 -275.000
21612900.000 4575365.000 -220.000
21613000.000 4575250.000 -165.000
21613275.000 4575795.000 -325.000
21613000.000 4575240.000 -165.000
21613125.000 4575132.500 -193.750
21613400.000 4575245.000 -257.500
21613125.000 4575125.000 -193.750
21613250.000 4575015.000 -222.500
21613250.000 4575010.000 -222.500
21613375.000 4574897.500 -251.250
21613375.000 4574895.000 -251.250
21613500.000 4574780.000 -280.000
21613600.000 4575242.500 -303.750
21613825.000 4574995.000 -332.500
21613650.000 4575525.000 -327.500
21614025.000 4575757.500 -357.500
21613675.000 4575792.500 -322.500
21614075.000 4575827.500 -347.500
21613950.000 4575915.000 -320.000
21613875.000 4576077.500 -268.750
21614250.000 4576335.000 -97.500
21613700.000 4576090.000 -265.000
21614575.000 4576495.000 60.000
21614400.000 4576520.000 50.000
21614725.000 4576705.000 236.250
21614550.000 4576720.000 222.500
21614900.000 4576690.000 250.000
21614775.000 4576772.500 243.750
21614650.000 4576855.000 237.500
21614850.000 4576877.500 266.250
21614700.000 4576925.000 252.500
21614550.000 4576970.000 238.750
21614450.000 4576580.000 105.000
21614325.000 4576665.000 150.000
21614250.000 4576575.000 67.500
21613425.000 4575965.000 -311.250
21613500.000 4575810.000 -305.000
21613375.000 4575900.000 -342.500
21613825.000 4576002.500 -292.500
21613800.000 4574390.000 -280.000
21613900.000 4574260.000 -280.000
21614000.000 4574142.500 -233.750
21614100.000 4574025.000 -187.500
21614000.000 4574142.500 -233.750
21614200.000 4573907.500 -141.250
21614300.000 4573790.000 -95.000
21615200.000 4575000.000 -335.000
21614550.000 4573850.000 -200.000
21615275.000 4574272.500 -470.000
21614400.000 4573637.500 -155.000
21614500.000 4573485.000 -215.000
21614400.000 4573637.500 -155.000
21614600.000 4573332.500 -275.000
21614700.000 4573180.000 -335.000
21615300.000 4574030.000 -515.000
21615700.000 4574460.000 -530.000
21615575.000 4574602.500 -481.250
21615450.000 4574735.000 -432.500
21615700.000 4574470.000 -530.000
21615800.000 4574710.000 -420.000
21615650.000 4574782.500 -398.750
21615650.000 4575090.000 -405.000
21615500.000 4574855.000 -377.500
21615575.000 4575280.000 -397.500
21615500.000 4575470.000 -390.000
21615850.000 4575335.000 -250.000
21615675.000 4575400.000 -320.000
21616025.000 4575260.000 -180.000
21615950.000 4575455.000 -207.500
21616200.000 4575190.000 -110.000
21616075.000 4575322.500 -158.750
21616375.000 4575715.000 -92.500
21616050.000 4575595.000 -132.500
21616425.000 4575790.000 -82.500
21616200.000 4575795.000 7.500
21615975.000 4575797.500 -143.750
21615800.000 4576117.500 -81.250
21615825.000 4575587.500 -256.250
21615700.000 4575720.000 -305.000
21615425.000 4575627.500 -337.500
21615375.000 4575537.500 -393.750
21615575.000 4575807.500 -273.750
21615250.000 4575610.000 -397.500
21615450.000 4575895.000 -242.500
21615375.000 4576052.500 -173.750
21615600.000 4576352.500 66.250
21615650.000 4576422.500 130.000
21615800.000 4576375.000 120.000
21616100.000 4576280.000 100.000
21615300.000 4578675.000 -76.250
21615500.000 4578585.000 41.250
21615750.000 4579005.000 150.000
21615900.000 4579470.000 200.000
21615675.000 4578772.500 125.000
21615975.000 4579140.000 323.750
21616000.000 4579030.000 365.000
21615950.000 4579250.000 282.500
21615925.000 4579360.000 241.250
21615700.000 4578465.000 75.000
21615775.000 4578560.000 85.000
21615800.000 4578390.000 50.000
21615950.000 4578580.000 70.000
21616150.000 4578825.000 202.500
21616125.000 4578600.000 55.000
21616225.000 4578722.500 121.250
21616250.000 4578910.000 237.500
21616300.000 4578620.000 40.000
21616375.000 4578850.000 173.750
21616450.000 4578532.500 12.500
21616500.000 4578790.000 110.000
21616600.000 4578445.000 -15.000
21616600.000 4578660.000 65.000
21616750.000 4578357.500 -42.500
21616700.000 4578530.000 20.000
21616900.000 4578270.000 -70.000
21616800.000 4578400.000 -25.000
21616125.000 4578970.000 301.250
21617000.000 4577930.000 -35.000
21617050.000 4577760.000 -17.500

POLYGONS 408 1632
3 181 171 173
3 175 176 178
3 96 94 97
3 29 32 31
3 181 182 183
3 32 138 38
3 34 3 31
3 87 90 92
3 135 145 144
3 139 138 136
3 198 36 42
3 127 18 126
3 59 61 57
3 35 36 3
3 203 206 205
3 24 33 1
3 104 101 102
3 74 86 84
3 171 172 173
3 80 201 77
3 2 1 3
3 25 26 24
3 26 27 29
3 182 181 179
3 69 45 71
3 7 10 12
3 94 92 91
3 213 214 215
3 62 64 66
3 20 21 23
3 199 200 188
3 34 35 3
3 197 36 198
3 88 91 90
3 175 158 176
3 39 41 36
3 138 139 141
3 119 116 117
3 113 115 112
3 215 214 216
3 127 21 18
3 51 200 46
3 161 159 162
3 128 133 150
3 23 21 28
3 58 229 55
3 182 184 183
3 143 89 74
3 199 47 200
3 179 181 173
3 212 210 211
3 193 196 188
3 180 182 179
3 116 113 117
3 188 200 51
3 4 193 191
3 180 189 184
3 202 205 210
3 32 30 138
3 146 88 145
3 48 50 46
3 49 57 55
3 49 48 44
3 169 174 172
3 169 172 168
3 62 222 224
3 226 58 57
3 155 152 153
3 196 195 2
3 193 195 196
3 185 183 51
3 38 40 37
3 224 225 227
3 218 215 216
3 140 137 143
3 49 55 53
3 201 80 203
3 192 6 194
3 66 65 218
3 153 152 13
3 207 228 214
3 129 130 131
3 31 26 29
3 29 30 32
3 99 98 97
3 94 93 92
3 63 61 59
3 110 107 109
3 79 81 80
3 126 117 148
3 190 178 176
3 187 190 188
3 7 5 9
3 96 95 93
3 122 120 121
3 132 30 28
3 35 37 39
3 9 6 11
3 45 69 67
3 44 46 42
3 113 112 109
3 38 138 72
3 91 146 132
3 191 193 190
3 2 195 4
3 224 222 225
3 89 88 74
3 56 230 54
3 76 85 83
3 230 55 229
3 150 133 131
3 18 124 126
3 139 140 142
3 124 18 123
3 32 34 31
3 124 117 126
3 77 78 70
3 57 58 55
3 108 106 107
3 177 189 180
3 27 25 23
3 120 119 121
3 167 160 168
3 138 141 72
3 143 71 142
3 123 122 121
3 15 151 125
3 86 88 90
3 159 157 158
3 91 88 146
3 159 158 160
3 7 9 10
3 135 144 134
3 36 196 3
3 158 11 176
3 13 152 12
3 162 163 161
3 5 7 1
3 107 110 108
3 45 44 43
3 177 180 179
3 150 130 127
3 103 100 147
3 124 121 117
3 196 197 188
3 63 64 61
3 197 199 188
3 139 142 141
3 27 26 25
3 87 86 90
3 4 195 193
3 57 61 62
3 118 116 119
3 15 125 14
3 75 73 76
3 147 133 148
3 142 72 141
3 5 1 0
3 87 93 84
3 163 157 161
3 67 69 70
3 33 31 3
3 170 167 168
3 160 166 159
3 57 224 226
3 87 92 93
3 192 191 176
3 15 152 151
3 76 82 81
3 6 0 194
3 83 85 84
3 168 172 171
3 99 103 102
3 184 187 186
3 61 64 62
3 185 181 183
3 137 136 134
3 91 133 97
3 71 143 74
3 17 14 18
3 204 209 203
3 69 75 70
3 19 20 22
3 190 189 178
3 220 221 223
3 82 83 84
3 8 24 1
3 126 128 127
3 67 60 45
3 146 145 135
3 8 19 22
3 173 175 177
3 164 162 159
3 52 53 54
3 65 67 68
3 179 173 177
3 73 69 71
3 85 73 84
3 48 46 44
3 73 85 76
3 136 138 30
3 203 205 201
3 148 128 126
3 48 53 52
3 65 68 212
3 41 42 36
3 200 47 46
3 56 54 53
3 88 89 145
3 154 155 153
3 68 67 70
3 114 113 109
3 46 47 42
3 196 36 197
3 16 8 7
3 137 140 136
3 11 6 176
3 120 118 119
3 172 174 173
3 100 133 147
3 10 158 13
3 224 227 226
3 30 27 28
3 41 40 43
3 14 16 7
3 194 191 192
3 30 132 134
3 66 220 222
3 157 156 13
3 98 96 97
3 8 1 7
3 104 107 106
3 144 137 134
3 75 69 73
3 147 148 149
3 176 6 192
3 5 6 9
3 114 148 113
3 147 149 102
3 208 206 203
3 12 15 14
3 50 51 46
3 194 0 4
3 102 149 114
3 42 41 43
3 66 222 62
3 222 223 225
3 219 216 217
3 70 78 68
3 14 125 18
3 125 151 123
3 154 153 13
3 103 147 102
3 137 89 143
3 39 40 41
3 105 104 102
3 222 220 223
3 121 119 117
3 100 99 97
3 44 60 49
3 80 204 203
3 196 2 3
3 10 11 158
3 168 160 169
3 115 113 116
3 133 100 97
3 100 103 99
3 72 43 38
3 22 25 24
3 221 218 219
3 105 114 109
3 21 129 28
3 43 72 45
3 218 216 219
3 88 86 74
3 84 73 74
3 27 30 29
3 28 129 131
3 60 67 65
3 189 190 187
3 4 0 2
3 18 21 17
3 186 187 51
3 127 130 129
3 44 42 43
3 184 189 187
3 33 26 31
3 1 33 3
3 166 165 159
3 191 194 4
3 81 79 75
3 187 188 51
3 117 113 148
3 146 135 132
3 123 121 124
3 101 98 99
3 21 20 17
3 28 27 23
3 94 96 93
3 104 105 109
3 168 171 170
3 142 71 72
3 16 19 8
3 184 186 183
3 160 167 166
3 104 106 101
3 107 104 109
3 75 79 77
3 101 99 102
3 34 32 38
3 36 35 39
3 189 177 178
3 39 37 40
3 78 77 210
3 136 30 134
3 114 149 148
3 205 207 210
3 13 12 10
3 131 133 132
3 157 159 161
3 77 202 210
3 6 5 0
3 63 59 60
3 130 150 131
3 112 111 109
3 0 1 2
3 207 211 210
3 209 208 203
3 152 15 12
3 199 198 42
3 97 94 91
3 186 51 183
3 213 212 211
3 169 160 158
3 34 38 37
3 175 178 177
3 174 169 158
3 114 105 102
3 205 202 201
3 145 89 144
3 50 48 52
3 128 150 127
3 218 65 215
3 211 207 214
3 210 212 68
3 48 49 53
3 201 202 77
3 10 9 11
3 217 214 228
3 62 224 57
3 191 190 176
3 158 157 13
3 95 82 93
3 64 65 66
3 206 207 205
3 55 56 53
3 185 51 50
3 156 154 13
3 215 65 212
3 180 184 182
3 66 218 220
3 92 90 91
3 140 143 142
3 59 57 49
3 137 144 89
3 174 158 173
3 118 115 116
3 17 16 14
3 86 87 84
3 63 65 64
3 132 28 131
3 35 34 37
3 213 215 212
3 23 25 22
3 60 59 49
3 22 24 8
3 20 19 17
3 216 214 217
3 72 71 45
3 76 81 75
3 93 82 84
3 125 123 18
3 139 136 140
3 22 20 23
3 43 40 38
3 71 74 73
3 60 65 63
3 76 83 82
3 190 193 188
3 148 133 128
3 26 33 24
3 21 127 129
3 56 55 230
3 197 198 199
3 220 218 221
3 47 199 42
3 213 211 214
3 79 80 77
3 78 210 68
3 109 111 110
3 165 164 159
3 60 44 45
3 14 7 12
3 17 19 16
3 173 158 175
3 133 91 132
3 75 77 70
3 132 135 134

POINT_DATA 231
COLOR_SCALARS GocadColor 4
0.0930037 0.0930037 0.439216 1
0.0930037 0.0930037 0.439216 1
0.0930037 0.0930037 0.439216 1
0.0930037 0.0930037 0.439216 1
0.0930037 0.0930037 0.439216 1
0.0930037 0.0930037 0.439216 1
0.0930037 0.0930037 0.439216 1
0.0930037 0.0930037 0.439216 1
0.0930037 0.0930037 0.439216 1
0.0930037 0.0930037 0.439216 1
0.0930037 0.0930037 0.439216 1
0.0930037 0.0930037 0.439216 1
0.0930037 0.0930037 0.439216 1
0.0930037 0.0930037 0.439216 1
0.0930037 0.0930037 0.439216 1
0.0930037 0.0930037 0.439216 1
0.0930037 0.0930037 0.439216 1
0.0930037 0.0930037 0.439216 1
0.0930037 0.0930037 0.439216 1
0.0930037 0.0930037 0.439216 1
0.0930037 0.0930037 0.439216 1
0.0930037 0.0930037 0.439216 1
0.0930037 0.0930037 0.439216 1
0.0930037 0.0930037 0.439216 1
0.0930037 0.0930037 0.439216 1
0.0930037 0.0930037 0.439216 1
0.0930037 0.0930037 0.439216 1
0.0930037 0.0930037 0.439216 1
0.0930037 0.0930037 0.439216 1
0.0930037 0.0930037 0.439216 1
0.0930037 0.0930037 0.439216 1
0.0930037 0.0930037 0.439216 1
0.0930037 0.0930037 0.439216 1
0.0930037 0.0930037 0.439216 1
0.0930037 0.0930037 0.439216 1
0.0930037 0.0930037 0.439216 1
0.0930037 0.0930037 0.439216 1
0.0930037 0.0930037 0.439216 1
0.0930037 0.0930037 0.439216 1
0.0930037 0.0930037 0.439216 1
0.0930037 0.0930037 0.439216 1
0.0930037 0.0930037 0.439216 1
0.0930037 0.0930037 0.439216 1
0.0930037 0.0930037 0.439216 1
0.0930037 0.0930037 0.439216 1
0.0930037 0.0930037 0.439216 1
0.0930037 0.0930037 0.439216 1
0.0930037 0.0930037 0.439216 1
0.0930037 0.0930037 0.439216 1
0.0930037 0.0930037 0.439216 1
0.0930037 0.0930037 0.439216 1
0.0930037 0.0930037 0.439216 1
0.0930037 0.0930037 0.439216 1
0.0930037 0.0930037 0.439216 1
0.0930037 0.0930037 0.439216 1
0.0930037 0.0930037 0.439216 1
0.0930037 0.0930037 0.439216 1
0.0930037 0.0930037 0.439216 1
0.0930037 0.0930037 0.439216 1
0.0930037 0.0930037 0.439216 1
0.0930037 0.0930037 0.439216 1
0.0930037 0.0930037 0.439216 1
0.0930037 0.0930037 0.439216 1
0.0930037 0.0930037 0.439216 1
0.0930037 0.0930037 0.439216 1
0.0930037 0.0930037 0.439216 1
0.0930037 0.0930037 0.439216 1
0.0930037 0.0930037 0.439216 1
0.0930037 0.0930037 0.439216 1
0.0930037 0.0930037 0.439216 1
0.0930037 0.0930037 0.439216 1
0.0930037 0.0930037 0.439216 1
0.0930037 0.0930037 0.439216 1
0.0930037 0.0930037 0.439216 1
0.0930037 0.0930037 0.439216 1
0.0930037 0.0930037 0.439216 1
0.0930037 0.0930037 0.439216 1
0.0930037 0.0930037 0.439216 1
0.0930037 0.0930037 0.439216 1
0.0930037 0.0930037 0.439216 1
0.0930037 0.0930037 0.439216 1
0.0930037 0.0930037 0.439216 1
0.0930037 0.0930037 0.439216 1
0.0930037 0.0930037 0.439216 1
0.0930037 0.0930037 0.439216 1
0.0930037 0.0930037 0.439216 1
0.0930037 0.0930037 0.439216 1
0.0930037 0.0930037 0.439216 1
0.0930037 0.0930037 0.439216 1
0.0930037 0.0930037 0.439216 1
0.0930037 0.0930037 0.439216 1
0.0930037 0.0930037 0.439216 1
0.0930037 0.0930037 0.439216 1
0.0930037 0.0930037 0.439216 1
0.0930037 0.0930037 0.439216 1
0.0930037 0.0930037 0.439216 1
0.0930037 0.0930037 0.439216 1
0.0930037 0.0930037 0.439216 1
0.0930037 0.0930037 0.439216 1
0.0930037 0.0930037 0.439216 1
0.0930037 0.0930037 0.439216 1
0.0930037 0.0930037 0.439216 1
0.0930037 0.0930037 0.439216 1
0.0930037 0.0930037 0.439216 1
0.0930037 0.0930037 0.439216 1
0.0930037 0.0930037 0.439216 1
0.0930037 0.0930037 0.439216 1
0.0930037 0.0930037 0.439216 1
0.0930037 0.0930037 0.439216 1
0.0930037 0.0930037 0.439216 1
0.0930037 0.0930037 0.439216 1
0.0930037 0.0930037 0.439216 1
0.0930037 0.0930037 0.439216 1
0.0930037 0.0930037 0.439216 1
0.0930037 0.0930037 0.439216 1
0.0930037 0.0930037 0.439216 1
0.0930037 0.0930037 0.439216 1
0.0930037 0.0930037 0.439216 1
0.0930037 0.0930037 0.439216 1
0.0930037 0.0930037 0.439216 1
0.0930037 0.0930037 0.439216 1
0.0930037 0.0930037 0.439216 1
0.0930037 0.0930037 0.439216 1
0.0930037 0.0930037 0.439216 1
0.0930037 0.0930037 0.439216 1
0.0930037 0.0930037 0.439216 1
0.0930037 0.0930037 0.439216 1
0.0930037 0.0930037 0.439216 1
0.0930037 0.0930037 0.439216 1
0.0930037 0.0930037 0.439216 1
0.0930037 0.0930037 0.439216 1
0.0930037 0.0930037 0.439216 1
0.0930037 0.0930037 0.439216 1
0.0930037 0.0930037 0.439216 1
0.0930037 0.0930037 0.439216 1
0.0930037 0.0930037 0.439216 1
0.0930037 0.0930037 0.439216 1
0.0930037 0.0930037 0.439216 1
0.0930037 0.0930037 0.439216 1
0.0930037 0.0930037 0.439216 1
0.0930037 0.0930037 0.439216 1
0.0930037 0.0930037 0.439216 1
0.0930037 0.0930037 0.439216 1
0.0930037 0.0930037 0.439216 1
0.0930037 0.0930037 0.439216 1
0.0930037 0.0930037 0.439216 1
0.0930037 0.0930037 0.439216 1
0.0930037 0.0930037 0.439216 1
0.0930037 0.0930037 0.439216 1
0.0930037 0.0930037 0.439216 1
0.0930037 0.0930037 0.439216 1
0.0930037 0.0930037 0.439216 1
0.0930037 0.0930037 0.439216 1
0.0930037 0.0930037 0.439216 1
0.0930037 0.0930037 0.439216 1
0.0930037 0.0930037 0.439216 1
0.0930037 0.0930037 0.439216 1
0.0930037 0.0930037 0.439216 1
0.0930037 0.0930037 0.439216 1
0.0930037 0.0930037 0.439216 1
0.0930037 0.0930037 0.439216 1
0.0930037 0.0930037 0.439216 1
0.0930037 0.0930037 0.439216 1
0.0930037 0.0930037 0.439216 1
0.0930037 0.0930037 0.439216 1
0.0930037 0.0930037 0.439216 1
0.0930037 0.0930037 0.439216 1
0.0930037 0.0930037 0.439216 1
0.0930037 0.0930037 0.439216 1
0.0930037 0.0930037 0.439216 1
0.0930037 0.0930037 0.439216 1
0.0930037 0.0930037 0.439216 1
0.0930037 0.0930037 0.439216 1
0.0930037 0.0930037 0.439216 1
0.0930037 0.0930037 0.439216 1
0.0930037 0.0930037 0.439216 1
0.0930037 0.0930037 0.439216 1
0.0930037 0.0930037 0.439216 1
0.0930037 0.0930037 0.439216 1
0.0930037 0.0930037 0.439216 1
0.0930037 0.0930037 0.439216 1
0.0930037 0.0930037 0.439216 1
0.0930037 0.0930037 0.439216 1
0.0930037 0.0930037 0.439216 1
0.0930037 0.0930037 0.439216 1
0.0930037 0.0930037 0.439216 1
0.0930037 0.0930037 0.439216 1
0.0930037 0.0930037 0.439216 1
0.0930037 0.0930037 0.439216 1
0.0930037 0.0930037 0.439216 1
0.0930037 0.0930037 0.439216 1
0.0930037 0.0930037 0.439216 1
0.0930037 0.0930037 0.439216 1
0.0930037 0.0930037 0.439216 1
0.0930037 0.0930037 0.439216 1
0.0930037 0.0930037 0.439216 1
0.0930037 0.0930037 0.439216 1
0.0930037 0.0930037 0.439216 1
0.0930037 0.0930037 0.439216 1
0.0930037 0.0930037 0.439216 1
0.0930037 0.0930037 0.439216 1
0.0930037 0.0930037 0.439216 1
0.0930037 0.0930037 0.439216 1
0.0930037 0.0930037 0.439216 1
0.0930037 0.0930037 0.439216 1
0.0930037 0.0930037 0.439216 1
0.0930037 0.0930037 0.439216 1
0.0930037 0.0930037 0.439216 1
0.0930037 0.0930037 0.439216 1
0.0930037 0.0930037 0.439216 1
0.0930037 0.0930037 0.439216 1
0.0930037 0.0930037 0.439216 1
0.0930037 0.0930037 0.439216 1
0.0930037 0.0930037 0.439216 1
0.0930037 0.0930037 0.439216 1
0.0930037 0.0930037 0.439216 1
0.0930037 0.0930037 0.439216 1
0.0930037 0.0930037 0.439216 1
0.0930037 0.0930037 0.439216 1
0.0930037 0.0930037 0.439216 1
0.0930037 0.0930037 0.439216 1
0.0930037 0.0930037 0.439216 1
0.0930037 0.0930037 0.439216 1
0.0930037 0.0930037 0.439216 1
0.0930037 0.0930037 0.439216 1
0.0930037 0.0930037 0.439216 1
0.0930037 0.0930037 0.439216 1
0.0930037 0.0930037 0.439216 1
0.0930037 0.0930037 0.439216 1
0.0930037 0.0930037 0.439216 1
0.0930037 0.0930037 0.439216 1

