# vtk DataFile Version 3.0
Gocad TSurf to VTK
ASCII
DATASET POLYDATA
POINTS 427 float
21567700.000 4548540.000 -1185.000
21567100.000 4548680.000 -1200.000
21567200.000 4548510.000 -1223.750
21567050.000 4548535.000 -1238.750
21567650.000 4548405.000 -1212.500
21567300.000 4548697.500 -1196.250
21567850.000 4548697.500 -1185.000
21567150.000 4548727.500 -1196.250
21567400.000 4548735.000 -1192.500
21566900.000 4548720.000 -1200.000
21566900.000 4548565.000 -1238.750
21566750.000 4548590.000 -1256.250
21566900.000 4548410.000 -1277.500
21567300.000 4548340.000 -1247.500
21566900.000 4548100.000 -1355.000
21567550.000 4548135.000 -1267.500
21567500.000 4548000.000 -1295.000
21567850.000 4548235.000 -1227.500
21567775.000 4548387.500 -1206.250
21567975.000 4547792.500 -1197.500
21567875.000 4547810.000 -1190.000
21568075.000 4548305.000 -1228.750
21568400.000 4547987.500 -1267.500
21568100.000 4548430.000 -1215.000
21568900.000 4548250.000 -1355.000
21568000.000 4548590.000 -1200.000
21568250.000 4548462.500 -1263.750
21567900.000 4548750.000 -1185.000
21567700.000 4548732.500 -1188.750
21567500.000 4548715.000 -1192.500
21567650.000 4548742.500 -1188.750
21568125.000 4548840.000 -1181.250
21568350.000 4548787.500 -1233.750
21568550.000 4548527.500 -1361.250
21568350.000 4548930.000 -1177.500
21568500.000 4548895.000 -1212.500
21568725.000 4548690.000 -1350.000
21568575.000 4549020.000 -1173.750
21568650.000 4549002.500 -1191.250
21568750.000 4548830.000 -1290.000
21568800.000 4549110.000 -1170.000
21569375.000 4548782.500 -1428.750
21568925.000 4548627.500 -1416.250
21569600.000 4548860.000 -1435.000
21569700.000 4548570.000 -1590.000
21570300.000 4548600.000 -1700.000
21570175.000 4548520.000 -1711.250
21570050.000 4548440.000 -1722.500
21570175.000 4548520.000 -1711.250
21569925.000 4548360.000 -1733.750
21569800.000 4548280.000 -1745.000
21569575.000 4548272.500 -1647.500
21569750.000 4548225.000 -1692.500
21569750.000 4548170.000 -1640.000
21569775.000 4548225.000 -1692.500
21569725.000 4548115.000 -1587.500
21569700.000 4548060.000 -1535.000
21569600.000 4548060.000 -1535.000
21569775.000 4547745.000 -1651.250
21569250.000 4547450.000 -1410.000
21570450.000 4547640.000 -1932.500
21570025.000 4547467.500 -1742.500
21570700.000 4547500.000 -2065.000
21569575.000 4547265.000 -1480.000
21570475.000 4547122.500 -1847.500
21568600.000 4547280.000 -1075.000
21569300.000 4547027.500 -1371.250
21568700.000 4547400.000 -1158.750
21568800.000 4547520.000 -1242.500
21568525.000 4547700.000 -1232.500
21568050.000 4547495.000 -1056.250
21567925.000 4547517.500 -1052.500
21567950.000 4547655.000 -1125.000
21568425.000 4547172.500 -1085.000
21567900.000 4547115.000 -1047.500
21568650.000 4546985.000 -1165.000
21568075.000 4546957.500 -1105.000
21568900.000 4546802.500 -1293.750
21569275.000 4546735.000 -1398.750
21568700.000 4546555.000 -1317.500
21569075.000 4546487.500 -1422.500
21568700.000 4546420.000 -1380.000
21569200.000 4546320.000 -1605.000
21568825.000 4546262.500 -1477.500
21569600.000 4546382.500 -1773.750
21569275.000 4546165.000 -1768.750
21569500.000 4546690.000 -1575.000
21569950.000 4546607.500 -1860.000
21569650.000 4546962.500 -1560.000
21570700.000 4546950.000 -1900.000
21570600.000 4546810.000 -1972.500
21570700.000 4547087.500 -1941.250
21570700.000 4547225.000 -1982.500
21570700.000 4547362.500 -2023.750
21570250.000 4546560.000 -1982.500
21570600.000 4546810.000 -1972.500
21570500.000 4546670.000 -2045.000
21570400.000 4546530.000 -2117.500
21570300.000 4546390.000 -2190.000
21570100.000 4546430.000 -2010.000
21570200.000 4546270.000 -2193.750
21569700.000 4546225.000 -1917.500
21569950.000 4546040.000 -2156.250
21569300.000 4545922.500 -1870.000
21569900.000 4545910.000 -2205.000
21568700.000 4546150.000 -1505.000
21569100.000 4545950.000 -1713.750
21569400.000 4545805.000 -1925.000
21568750.000 4545915.000 -1457.500
21568600.000 4546047.500 -1397.500
21568775.000 4545797.500 -1433.750
21569600.000 4545570.000 -2035.000
21568900.000 4545522.500 -1482.500
21569750.000 4545740.000 -2120.000
21569675.000 4545655.000 -2077.500
21569825.000 4545825.000 -2162.500
21569825.000 4545825.000 -2162.500
21568300.000 4545480.000 -1102.500
21569500.000 4545440.000 -1951.250
21569400.000 4545310.000 -1867.500
21569500.000 4545440.000 -1951.250
21569300.000 4545180.000 -1783.750
21569200.000 4545050.000 -1700.000
21569300.000 4545180.000 -1783.750
21568700.000 4545010.000 -1340.000
21569175.000 4544987.500 -1662.500
21568700.000 4545010.000 -1340.000
21568900.000 4544905.000 -1445.000
21568075.000 4544897.500 -1013.750
21569100.000 4544800.000 -1550.000
21568000.000 4544790.000 -975.000
21569125.000 4544862.500 -1587.500
21569150.000 4544925.000 -1625.000
21569175.000 4544987.500 -1662.500
21568900.000 4544700.000 -1507.500
21567975.000 4544915.000 -953.750
21567950.000 4545040.000 -932.500
21567700.000 4545090.000 -857.500
21567200.000 4544790.000 -640.000
21567300.000 4545090.000 -690.000
21567575.000 4544355.000 -1007.500
21567100.000 4544365.000 -800.000
21567925.000 4544645.000 -1013.750
21567775.000 4544355.000 -1091.250
21568150.000 4544595.000 -1177.500
21568500.000 4544500.000 -1422.500
21569100.000 4544775.000 -1665.000
21568300.000 4544400.000 -1380.000
21569100.000 4544700.000 -2010.000
21568700.000 4544450.000 -1785.000
21569100.000 4544710.000 -2010.000
21569100.000 4544732.500 -1895.000
21569100.000 4544657.500 -2055.000
21569100.000 4544600.000 -2100.000
21569100.000 4544605.000 -2100.000
21569100.000 4544500.000 -2190.000
21568300.000 4543910.000 -1480.000
21569100.000 4544552.500 -2145.000
21569000.000 4544242.500 -2096.250
21568500.000 4543690.000 -1647.500
21569300.000 4544430.000 -2400.000
21569200.000 4544465.000 -2295.000
21568800.000 4543727.500 -1908.750
21569500.000 4544360.000 -2610.000
21568700.000 4543470.000 -1815.000
21569400.000 4544395.000 -2505.000
21569300.000 4544430.000 -2400.000
21569300.000 4543730.000 -2120.000
21567950.000 4543492.500 -1406.250
21568100.000 4542790.000 -1240.000
21568000.000 4542967.500 -1247.500
21568600.000 4542765.000 -1310.000
21568275.000 4542655.000 -1185.000
21568900.000 4543110.000 -1597.500
21568850.000 4542752.500 -1345.000
21569100.000 4542740.000 -1380.000
21569900.000 4543990.000 -2425.000
21569825.000 4542760.000 -1611.250
21569800.000 4544090.000 -2471.250
21569900.000 4544000.000 -2425.000
21569700.000 4544180.000 -2517.500
21569600.000 4544270.000 -2563.750
21569600.000 4544270.000 -2563.750
21570075.000 4543970.000 -2506.250
21570250.000 4543940.000 -2587.500
21570425.000 4543910.000 -2668.750
21570600.000 4543880.000 -2750.000
21570075.000 4542247.500 -1357.500
21569400.000 4542405.000 -1240.000
21570700.000 4542945.000 -1765.000
21570251.594 4542155.000 -1349.091
21571100.000 4543715.000 -2470.000
21571350.000 4543632.500 -2330.000
21570850.000 4543797.500 -2610.000
21571600.000 4543550.000 -2190.000
21571125.000 4542320.000 -1563.750
21570875.719 4542155.000 -1453.948
21571650.000 4543520.000 -2148.750
21571650.000 4543527.500 -2148.750
21571350.000 4542700.000 -1717.500
21571700.000 4542305.000 -1407.500
21571700.000 4543500.000 -2107.500
21571750.000 4543480.000 -2066.250
21571700.000 4543505.000 -2107.500
21571750.000 4543482.500 -2066.250
21571800.000 4543460.000 -2025.000
21571800.000 4542680.000 -1585.000
21571900.000 4543445.000 -1982.500
21571841.672 4542155.000 -1261.250
21571771.422 4542155.000 -1296.071
21572006.813 4542155.000 -1192.841
21572280.000 4542155.000 -1165.000
21572300.000 4542600.000 -1387.500
21572467.922 4542155.000 -1106.226
21572000.000 4543430.000 -1940.000
21572075.000 4543390.000 -1918.750
21571950.000 4543437.500 -1961.250
21572150.000 4543350.000 -1897.500
21572075.000 4543390.000 -1918.750
21572300.000 4543270.000 -1855.000
21572590.219 4542155.000 -1127.514
21572225.000 4543310.000 -1876.250
21572533.531 4542155.000 -1117.646
21572720.750 4542155.000 -1150.236
21572848.359 4542155.000 -1162.695
21572860.453 4542155.000 -1163.729
21572450.000 4543245.000 -1851.250
21572900.000 4542155.000 -1167.736
21572450.000 4543245.000 -1851.250
21572600.000 4543220.000 -1847.500
21572750.000 4543195.000 -1843.750
21572900.000 4542420.000 -1345.000
21572900.000 4543170.000 -1840.000
21573181.063 4542155.000 -1230.568
21573631.344 4542155.000 -1426.786
21573650.000 4542390.000 -1645.000
21573701.844 4542155.000 -1454.927
21573100.000 4543127.500 -1937.500
21573700.000 4543020.000 -2230.000
21573100.000 4543135.000 -1937.500
21573300.000 4543100.000 -2035.000
21573500.000 4543065.000 -2132.500
21573700.000 4543030.000 -2230.000
21573957.000 4542155.000 -1556.790
21573862.344 4542155.000 -1519.006
21574114.719 4542155.000 -1619.760
21573813.297 4542155.000 -1505.846
21571630.969 4542155.000 -1352.584
21571339.031 4542155.000 -1428.215
21571205.813 4542155.000 -1462.730
21571101.094 4542155.000 -1486.830
21571850.000 4543452.500 -2003.750
21570618.766 4542155.000 -1413.663
21570454.484 4542155.000 -1384.773
21570160.828 4542155.000 -1318.402
21570041.969 4542155.000 -1278.214
21569656.125 4542155.000 -1163.774
21569464.656 4542155.000 -1102.069
21569275.000 4542155.000 -1062.222
21569250.000 4542160.000 -1060.000
21569251.094 4542155.000 -1057.735
21569025.000 4542205.000 -1040.000
21569247.297 4542155.000 -1057.027
21568800.000 4542250.000 -1020.000
21568943.203 4542155.000 -1000.000
21568920.906 4542155.000 -995.818
21569052.172 4542155.000 -1020.435
21568826.891 4542155.000 -988.632
21568776.484 4542155.000 -985.198
21568720.828 4542155.000 -981.406
21568625.000 4542385.000 -1075.000
21568540.859 4542155.000 -981.504
21568450.000 4542520.000 -1130.000
21568350.000 4542360.000 -1060.000
21568125.000 4542415.000 -1080.000
21568179.172 4542155.000 -976.719
21568147.031 4542155.000 -976.441
21568312.953 4542155.000 -977.877
21568442.047 4542155.000 -980.256
21568125.000 4542155.000 -976.250
21568025.000 4542295.000 -1031.250
21568014.234 4542155.000 -974.712
21567900.000 4542470.000 -1100.000
[...]
POINT_DATA 427
COLOR_SCALARS GocadColor 4
0 0.392157 0 1
0 0.392157 0 1
0 0.392157 0 1
0 0.392157 0 1
0 0.392157 0 1
0 0.392157 0 1
0 0.392157 0 1
0 0.392157 0 1
0 0.392157 0 1
0 0.392157 0 1
0 0.392157 0 1
0 0.392157 0 1
0 0.392157 0 1
0 0.392157 0 1
0 0.392157 0 1
0 0.392157 0 1
0 0.392157 0 1
0 0.392157 0 1
0 0.392157 0 1
0 0.392157 0 1
0 0.392157 0 1
0 0.392157 0 1
0 0.392157 0 1
0 0.392157 0 1
0 0.392157 0 1
0 0.392157 0 1
0 0.392157 0 1
0 0.392157 0 1
0 0.392157 0 1
0 0.392157 0 1
0 0.392157 0 1
0 0.392157 0 1
0 0.392157 0 1
0 0.392157 0 1
0 0.392157 0 1
0 0.392157 0 1
0 0.392157 0 1
0 0.392157 0 1
0 0.392157 0 1
0 0.392157 0 1
0 0.392157 0 1
0 0.392157 0 1
0 0.392157 0 1
0 0.392157 0 1
0 0.392157 0 1
0 0.392157 0 1
0 0.392157 0 1
0 0.392157 0 1
0 0.392157 0 1
0 0.392157 0 1
0 0.392157 0 1
0 0.392157 0 1
0 0.392157 0 1
0 0.392157 0 1
0 0.392157 0 1
0 0.392157 0 1
0 0.392157 0 1
0 0.392157 0 1
0 0.392157 0 1
0 0.392157 0 1
0 0.392157 0 1
0 0.392157 0 1
0 0.392157 0 1
0 0.392157 0 1
0 0.392157 0 1
0 0.392157 0 1
0 0.392157 0 1
0 0.392157 0 1
0 0.392157 0 1
0 0.392157 0 1
0 0.392157 0 1
0 0.392157 0 1
0 0.392157 0 1
0 0.392157 0 1
0 0.392157 0 1
0 0.392157 0 1
0 0.392157 0 1
0 0.392157 0 1
0 0.392157 0 1
0 0.392157 0 1
0 0.392157 0 1
0 0.392157 0 1
0 0.392157 0 1
0 0.392157 0 1
0 0.392157 0 1
0 0.392157 0 1
0 0.392157 0 1
0 0.392157 0 1
0 0.392157 0 1
0 0.392157 0 1
0 0.392157 0 1
0 0.392157 0 1
0 0.392157 0 1
0 0.392157 0 1
0 0.392157 0 1
0 0.392157 0 1
0 0.392157 0 1
0 0.392157 0 1
0 0.392157 0 1
0 0.392157 0 1
0 0.392157 0 1
0 0.392157 0 1
0 0.392157 0 1
0 0.392157 0 1
0 0.392157 0 1
0 0.392157 0 1
0 0.392157 0 1
0 0.392157 0 1
0 0.392157 0 1
0 0.392157 0 1
0 0.392157 0 1
0 0.392157 0 1
0 0.392157 0 1
0 0.392157 0 1
0 0.392157 0 1
0 0.392157 0 1
0 0.392157 0 1
0 0.392157 0 1
0 0.392157 0 1
0 0.392157 0 1
0 0.392157 0 1
0 0.392157 0 1
0 0.392157 0 1
0 0.392157 0 1
0 0.392157 0 1
0 0.392157 0 1
0 0.392157 0 1
0 0.392157 0 1
0 0.392157 0 1
0 0.392157 0 1
0 0.392157 0 1
0 0.392157 0 1
0 0.392157 0 1
0 0.392157 0 1
0 0.392157 0 1
0 0.392157 0 1
0 0.392157 0 1
0 0.392157 0 1
0 0.392157 0 1
0 0.392157 0 1
0 0.392157 0 1
0 0.392157 0 1
0 0.392157 0 1
0 0.392157 0 1
0 0.392157 0 1
0 0.392157 0 1
0 0.392157 0 1
0 0.392157 0 1
0 0.392157 0 1
0 0.392157 0 1
0 0.392157 0 1
0 0.392157 0 1
0 0.392157 0 1
0 0.392157 0 1
0 0.392157 0 1
0 0.392157 0 1
0 0.392157 0 1
0 0.392157 0 1
0 0.392157 0 1
0 0.392157 0 1
0 0.392157 0 1
0 0.392157 0 1
0 0.392157 0 1
0 0.392157 0 1
0 0.392157 0 1
0 0.392157 0 1
0 0.392157 0 1
0 0.392157 0 1
0 0.392157 0 1
0 0.392157 0 1
0 0.392157 0 1
0 0.392157 0 1
0 0.392157 0 1
0 0.392157 0 1
0 0.392157 0 1
0 0.392157 0 1
0 0.392157 0 1
0 0.392157 0 1
0 0.392157 0 1
0 0.392157 0 1
0 0.392157 0 1
0 0.392157 0 1
0 0.392157 0 1
0 0.392157 0 1
0 0.392157 0 1
0 0.392157 0 1
0 0.392157 0 1
0 0.392157 0 1
0 0.392157 0 1
0 0.392157 0 1
0 0.392157 0 1
0 0.392157 0 1
0 0.392157 0 1
0 0.392157 0 1
0 0.392157 0 1
0 0.392157 0 1
0 0.392157 0 1
0 0.392157 0 1
0 0.392157 0 1
0 0.392157 0 1
0 0.392157 0 1
0 0.392157 0 1
0 0.392157 0 1
0 0.392157 0 1
0 0.392157 0 1
0 0.392157 0 1
0 0.392157 0 1
0 0.392157 0 1
0 0.392157 0 1
0 0.392157 0 1
0 0.392157 0 1
0 0.392157 0 1
0 0.392157 0 1
0 0.392157 0 1
0 0.392157 0 1
0 0.392157 0 1
0 0.392157 0 1
0 0.392157 0 1
0 0.392157 0 1
0 0.392157 0 1
0 0.392157 0 1
0 0.392157 0 1
0 0.392157 0 1
0 0.392157 0 1
0 0.392157 0 1
0 0.392157 0 1
0 0.392157 0 1
0 0.392157 0 1
0 0.392157 0 1
0 0.392157 0 1
0 0.392157 0 1
0 0.392157 0 1
0 0.392157 0 1
0 0.392157 0 1
0 0.392157 0 1
0 0.392157 0 1
0 0.392157 0 1
0 0.392157 0 1
0 0.392157 0 1
0 0.392157 0 1
0 0.392157 0 1
0 0.392157 0 1
0 0.392157 0 1
0 0.392157 0 1
0 0.392157 0 1
0 0.392157 0 1
0 0.392157 0 1
0 0.392157 0 1
0 0.392157 0 1
0 0.392157 0 1
0 0.392157 0 1
0 0.392157 0 1
0 0.392157 0 1
0 0.392157 0 1
0 0.392157 0 1
0 0.392157 0 1
0 0.392157 0 1
0 0.392157 0 1
0 0.392157 0 1
0 0.392157 0 1
0 0.392157 0 1
0 0.392157 0 1
0 0.392157 0 1
0 0.392157 0 1
0 0.392157 0 1
0 0.392157 0 1
0 0.392157 0 1
0 0.392157 0 1
0 0.392157 0 1
0 0.392157 0 1
0 0.392157 0 1
0 0.392157 0 1
0 0.392157 0 1
0 0.392157 0 1
0 0.392157 0 1
0 0.392157 0 1
0 0.392157 0 1
0 0.392157 0 1
0 0.392157 0 1
0 0.392157 0 1
0 0.392157 0 1
0 0.392157 0 1
0 0.392157 0 1
0 0.392157 0 1
0 0.392157 0 1
0 0.392157 0 1
0 0.392157 0 1
0 0.392157 0 1
0 0.392157 0 1
0 0.392157 0 1
0 0.392157 0 1
0 0.392157 0 1
0 0.392157 0 1
0 0.392157 0 1
0 0.392157 0 1
0 0.392157 0 1
0 0.392157 0 1
0 0.392157 0 1
0 0.392157 0 1
0 0.392157 0 1
0 0.392157 0 1
0 0.392157 0 1
0 0.392157 0 1
0 0.392157 0 1
0 0.392157 0 1
0 0.392157 0 1
0 0.392157 0 1
0 0.392157 0 1
0 0.392157 0 1
0 0.392157 0 1
0 0.392157 0 1
0 0.392157 0 1
0 0.392157 0 1
0 0.392157 0 1
0 0.392157 0 1
0 0.392157 0 1
0 0.392157 0 1
0 0.392157 0 1
0 0.392157 0 1
0 0.392157 0 1
0 0.392157 0 1
0 0.392157 0 1
0 0.392157 0 1
0 0.392157 0 1
0 0.392157 0 1
0 0.392157 0 1
0 0.392157 0 1
0 0.392157 0 1
0 0.392157 0 1
0 0.392157 0 1
0 0.392157 0 1
0 0.392157 0 1
0 0.392157 0 1
0 0.392157 0 1
0 0.392157 0 1
0 0.392157 0 1
0 0.392157 0 1
0 0.392157 0 1
0 0.392157 0 1
0 0.392157 0 1
0 0.392157 0 1
0 0.392157 0 1
0 0.392157 0 1
0 0.392157 0 1
0 0.392157 0 1
0 0.392157 0 1
0 0.392157 0 1
0 0.392157 0 1
0 0.392157 0 1
0 0.392157 0 1
0 0.392157 0 1
0 0.392157 0 1
0 0.392157 0 1
0 0.392157 0 1
0 0.392157 0 1
0 0.392157 0 1
0 0.392157 0 1
0 0.392157 0 1
0 0.392157 0 1
0 0.392157 0 1
0 0.392157 0 1
0 0.392157 0 1
0 0.392157 0 1
0 0.392157 0 1
0 0.392157 0 1
0 0.392157 0 1
0 0.392157 0 1
0 0.392157 0 1
0 0.392157 0 1
0 0.392157 0 1
0 0.392157 0 1
0 0.392157 0 1
0 0.392157 0 1
0 0.392157 0 1
0 0.392157 0 1
0 0.392157 0 1
0 0.392157 0 1
0 0.392157 0 1
0 0.392157 0 1
0 0.392157 0 1
0 0.392157 0 1
0 0.392157 0 1
0 0.392157 0 1
0 0.392157 0 1
0 0.392157 0 1
0 0.392157 0 1
0 0.392157 0 1
0 0.392157 0 1
0 0.392157 0 1
0 0.392157 0 1
0 0.392157 0 1
0 0.392157 0 1
0 0.392157 0 1
0 0.392157 0 1
0 0.392157 0 1
0 0.392157 0 1
0 0.392157 0 1
0 0.392157 0 1
0 0.392157 0 1
0 0.392157 0 1
0 0.392157 0 1
0 0.392157 0 1
0 0.392157 0 1
0 0.392157 0 1
0 0.392157 0 1
0 0.392157 0 1
0 0.392157 0 1
0 0.392157 0 1
0 0.392157 0 1
0 0.392157 0 1
0 0.392157 0 1
0 0.392157 0 1
0 0.392157 0 1
0 0.392157 0 1
0 0.392157 0 1
0 0.392157 0 1
0 0.392157 0 1
0 0.392157 0 1
0 0.392157 0 1
0 0.392157 0 1
0 0.392157 0 1
0 0.392157 0 1
0 0.392157 0 1
0 0.392157 0 1
0 0.392157 0 1
0 0.392157 0 1
0 0.392157 0 1

