# vtk DataFile Version 3.0
Gocad TSurf to VTK
ASCII
DATASET POLYDATA
POINTS 2045 float
21578900.000 4576600.000 -640.000
21578825.000 4576730.000 -692.500
21578900.000 4576945.000 -550.000
21578800.000 4576900.000 -640.000
21579700.000 4577040.000 -15.000
21578600.000 4576602.500 -932.500
21578600.000 4576430.000 -960.000
21578600.000 4576775.000 -905.000
21578450.000 4576690.000 -1032.500
21578750.000 4576860.000 -745.000
21578600.000 4576947.500 -877.500
21578450.000 4576872.500 -993.750
21578675.000 4576990.000 -797.500
21578600.000 4577120.000 -850.000
21578700.000 4577200.000 -640.000
21578400.000 4577020.000 -1005.000
21578500.000 4577282.500 -898.750
21578350.000 4577207.500 -1015.000
21578575.000 4577342.500 -741.250
21578300.000 4577390.000 -1032.500
21578725.000 4577420.000 -585.000
21578750.000 4577640.000 -530.000
21578875.000 4577487.500 -450.000
21579200.000 4577490.000 0.000
21579575.000 4577152.500 -8.750
21579025.000 4577572.500 -240.000
21579550.000 4577505.000 153.750
21578600.000 4578102.500 -492.500
21578200.000 4577770.000 -1045.000
21579250.000 4577930.000 12.500
21578875.000 4578540.000 -187.500
21579450.000 4577837.500 161.250
21579375.000 4578192.500 63.750
21579550.000 4578080.000 187.500
21579350.000 4578542.500 105.000
21579622.109 4578356.805 334.642
21579619.813 4578385.109 337.711
21579623.180 4578350.430 334.492
21579633.336 4578319.594 334.381
21579714.406 4578001.906 330.327
21579723.094 4577967.063 329.856
21579675.000 4577935.000 273.750
21579753.898 4577843.477 328.189
21579600.000 4577660.000 210.000
21579752.344 4577759.023 324.257
21579845.938 4577656.789 331.291
21579850.000 4577645.000 328.750
21579700.000 4577547.500 216.250
21579900.000 4577500.000 297.500
21579800.000 4577435.000 222.500
21579650.000 4577350.000 97.500
21579950.000 4577355.000 266.250
21579900.000 4577322.500 228.750
21580000.000 4577210.000 235.000
21579675.000 4577195.000 41.250
21579775.000 4576887.500 41.250
21580050.000 4577047.500 256.250
21579675.000 4576840.000 -3.750
21579850.000 4576735.000 97.500
21579550.000 4576575.000 -132.500
21579750.000 4576680.000 42.500
21579025.000 4576477.500 -542.500
21579475.000 4576342.500 -191.250
21578975.000 4576450.000 -622.500
21578900.000 4576407.500 -703.750
21579050.000 4576300.000 -605.000
21579125.000 4576150.000 -587.500
21578900.000 4576215.000 -767.500
21578675.000 4576280.000 -943.750
21578900.000 4576022.500 -831.250
21579200.000 4576000.000 -570.000
21578750.000 4576125.000 -927.500
21578600.000 4576055.000 -927.500
21578500.000 4575820.000 -981.250
21578300.000 4576100.000 -1153.750
21578600.000 4575867.500 -911.250
21578200.000 4575460.000 -765.000
21579025.000 4575662.500 -747.500
21578725.000 4575505.000 -778.750
21579000.000 4575400.000 -662.500
21578425.000 4575315.000 -690.000
21578000.000 4575340.000 -710.000
21578600.000 4574975.000 -492.500
21579200.000 4574770.000 -461.250
21578300.000 4575025.000 -452.500
21578450.000 4574867.500 -323.750
21578075.000 4575152.500 -546.250
21577925.000 4575052.500 -587.500
21578150.000 4574965.000 -382.500
21578000.000 4574850.000 -410.000
21578225.000 4574770.000 -218.750
21577850.000 4574790.000 -480.000
21577600.000 4574902.500 -633.750
21577800.000 4574547.500 -341.250
21578100.000 4574670.000 -232.500
21577700.000 4574725.000 -487.500
21577550.000 4574630.000 -417.500
21577375.000 4574760.000 -528.750
21577500.000 4575080.000 -780.000
21577350.000 4574310.000 -238.750
21576950.000 4574530.000 -180.000
21577600.000 4574180.000 -235.000
21577400.000 4574080.000 -165.000
21577050.000 4574130.000 -40.000
21577725.000 4573975.000 -353.750
21577875.000 4574087.500 -372.500
21577475.000 4573857.500 -291.250
21577700.000 4573680.000 -452.500
21577200.000 4573712.500 -106.250
21577300.000 4573495.000 -242.500
21577100.000 4573930.000 30.000
21576700.000 4573700.000 170.000
21576900.000 4574265.000 70.000
21576700.000 4574150.000 140.000
21577000.000 4574330.000 -110.000
21576800.000 4574432.500 90.000
21576700.000 4574600.000 110.000
21576700.000 4574375.000 125.000
21576900.000 4574730.000 -250.000
21576375.000 4574622.500 -8.750
21577050.000 4575002.500 -762.500
21576750.000 4575035.000 -690.000
21577450.000 4575245.000 -867.500
21577250.000 4575330.000 -962.500
21577675.000 4575342.500 -856.250
21577550.000 4575475.000 -947.500
21577800.000 4575210.000 -765.000
21577925.000 4575502.500 -853.750
21578125.000 4575612.500 -901.250
21577850.000 4575655.000 -997.500
21578250.000 4575875.000 -1102.500
21578050.000 4575765.000 -1037.500
21578075.000 4575972.500 -1206.250
21577975.000 4575910.000 -1173.750
21578200.000 4576240.000 -1240.000
21577900.000 4576070.000 -1310.000
21578075.000 4576340.000 -1233.750
21577850.000 4576212.500 -1286.250
21578150.000 4576385.000 -1233.750
21578225.000 4576417.500 -1206.250
21578100.000 4576530.000 -1227.500
21577950.000 4576440.000 -1227.500
21578050.000 4576675.000 -1221.250
21577825.000 4576540.000 -1221.250
21577800.000 4576355.000 -1262.500
21577700.000 4576300.000 -1250.000
21577700.000 4576470.000 -1232.500
21577700.000 4576640.000 -1215.000
21577325.000 4576260.000 -1086.250
21577700.000 4576130.000 -1267.500
21577200.000 4576360.000 -1020.000
21577200.000 4576755.000 -1222.500
21577250.000 4576050.000 -1075.000
21577275.000 4575895.000 -1102.500
21577000.000 4575925.000 -1012.500
21576850.000 4576017.500 -953.750
21576850.000 4575845.000 -1020.000
21576700.000 4576110.000 -895.000
21576775.000 4575980.000 -957.500
21576725.000 4576305.000 -975.000
21576600.000 4576235.000 -932.500
21577100.000 4576492.500 -1068.750
21576750.000 4576500.000 -1055.000
21577000.000 4576625.000 -1117.500
21576775.000 4576695.000 -1135.000
21576300.000 4576427.500 -1003.750
21576500.000 4576360.000 -970.000
21576225.000 4576700.000 -1007.500
21576000.000 4576550.000 -1007.500
21576450.000 4576960.000 -912.500
21576000.000 4576970.000 -895.000
21576750.000 4577002.500 -1106.250
21577200.000 4576952.500 -1323.750
21576650.000 4577207.500 -888.750
21576850.000 4577200.000 -1032.500
21576875.000 4577350.000 -941.250
21577050.000 4577330.000 -1137.500
21576900.000 4577510.000 -850.000
21577250.000 4577455.000 -1207.500
21576725.000 4577582.500 -933.750
21576450.000 4577407.500 -857.500
21576875.000 4577672.500 -958.750
21577300.000 4577760.000 -990.000
21576750.000 4577760.000 -1067.500
21576850.000 4577835.000 -1067.500
21576550.000 4577665.000 -1017.500
21576675.000 4577890.000 -1176.250
21576375.000 4577747.500 -1101.250
21576000.000 4577517.500 -1041.250
21576600.000 4578020.000 -1285.000
21576825.000 4577997.500 -1176.250
21576200.000 4578130.000 -1352.500
21576125.000 4577925.000 -1243.750
21576400.000 4578230.000 -1402.500
21576575.000 4578177.500 -1320.000
21576200.000 4578280.000 -1436.250
21576550.000 4578325.000 -1355.000
21575975.000 4578135.000 -1381.250
21576050.000 4578030.000 -1312.500
21575950.000 4578465.000 -1527.500
21575425.000 4578075.000 -1305.000
21576225.000 4578550.000 -1533.750
21576350.000 4578837.500 -1537.500
21576850.000 4578490.000 -1257.500
21576900.000 4578820.000 -1230.000
21576825.000 4578325.000 -1271.250
21576725.000 4578275.000 -1320.000
21577050.000 4578445.000 -1207.500
21577000.000 4578570.000 -1215.000
21577100.000 4578320.000 -1200.000
21577200.000 4578680.000 -1087.500
21576800.000 4578160.000 -1285.000
21576925.000 4578060.000 -1211.250
21577050.000 4577960.000 -1137.500
21577200.000 4578215.000 -1137.500
21577200.000 4578045.000 -1087.500
21577300.000 4578110.000 -1067.500
21577175.000 4577860.000 -1063.750
21577250.000 4577907.500 -1038.750
21577550.000 4578085.000 -915.000
21577600.000 4578270.000 -880.000
21577350.000 4577642.500 -1108.750
21577575.000 4577795.000 -1053.750
21577400.000 4577525.000 -1227.500
21577450.000 4577407.500 -1346.250
21577550.000 4577625.000 -1177.500
21577800.000 4577480.000 -1365.000
21577675.000 4577865.000 -977.500
21577625.000 4577172.500 -1402.500
21577850.000 4577315.000 -1327.500
21577750.000 4577055.000 -1340.000
21578275.000 4577152.500 -1093.750
21578050.000 4577215.000 -1235.000
21577900.000 4577150.000 -1290.000
21578175.000 4577082.500 -1170.000
21578300.000 4576950.000 -1105.000
21577875.000 4576937.500 -1277.500
21578000.000 4576820.000 -1215.000
21577650.000 4576802.500 -1277.500
21577600.000 4576965.000 -1340.000
21577450.000 4576895.000 -1320.000
21578275.000 4576772.500 -1138.750
21578250.000 4576595.000 -1172.500
21578525.000 4576560.000 -996.250
21578375.000 4576820.000 -1068.750
21578000.000 4578150.000 -710.000
21578500.000 4578500.000 -365.000
21578100.000 4578555.000 -537.500
21578900.000 4578690.000 -110.000
21578725.000 4578752.500 -173.750
21578275.000 4578830.000 -365.000
21578800.000 4579270.000 0.000
21578225.000 4579117.500 -332.500
21579325.000 4579112.500 281.250
21579275.000 4579390.000 345.000
21579500.000 4579060.000 375.000
21579400.000 4578715.000 195.000
21579425.000 4579170.000 365.000
21579350.000 4579280.000 355.000
21579525.000 4578935.000 372.500
21579574.828 4578685.031 367.329
21579574.844 4578684.898 367.315
21579574.578 4578687.094 367.542
21579550.000 4578810.000 370.000
21579589.766 4578559.281 354.360
21579200.000 4579500.000 335.000
21578800.000 4579620.000 62.500
21578275.000 4579472.500 -267.500
21579100.000 4579617.500 282.500
21579000.000 4579735.000 230.000
21579150.000 4579640.000 325.000
21579100.000 4579780.000 315.000
21579050.000 4579920.000 305.000
21578900.000 4579852.500 177.500
21579000.000 4580060.000 295.000
21578800.000 4580065.000 177.500
21578700.000 4580000.000 83.750
21578950.000 4580132.500 305.000
21578800.000 4580160.000 230.000
21578900.000 4580205.000 315.000
21578850.000 4580277.500 325.000
21578800.000 4580350.000 335.000
21578400.000 4580090.000 -40.000
21578425.000 4580280.000 50.000
21578200.000 4580310.000 -67.500
21578725.000 4580475.000 331.250
21578450.000 4580470.000 140.000
21578650.000 4580600.000 327.500
21578575.000 4580725.000 323.750
21578500.000 4580850.000 320.000
21578000.000 4580530.000 -95.000
[...]
POINT_DATA 2045
COLOR_SCALARS GocadColor 4
0.588235 0.321569 0.176471 1
0.588235 0.321569 0.176471 1
0.588235 0.321569 0.176471 1
0.588235 0.321569 0.176471 1
0.588235 0.321569 0.176471 1
0.588235 0.321569 0.176471 1
0.588235 0.321569 0.176471 1
0.588235 0.321569 0.176471 1
0.588235 0.321569 0.176471 1
0.588235 0.321569 0.176471 1
0.588235 0.321569 0.176471 1
0.588235 0.321569 0.176471 1
0.588235 0.321569 0.176471 1
0.588235 0.321569 0.176471 1
0.588235 0.321569 0.176471 1
0.588235 0.321569 0.176471 1
0.588235 0.321569 0.176471 1
0.588235 0.321569 0.176471 1
0.588235 0.321569 0.176471 1
0.588235 0.321569 0.176471 1
0.588235 0.321569 0.176471 1
0.588235 0.321569 0.176471 1
0.588235 0.321569 0.176471 1
0.588235 0.321569 0.176471 1
0.588235 0.321569 0.176471 1
0.588235 0.321569 0.176471 1
0.588235 0.321569 0.176471 1
0.588235 0.321569 0.176471 1
0.588235 0.321569 0.176471 1
0.588235 0.321569 0.176471 1
0.588235 0.321569 0.176471 1
0.588235 0.321569 0.176471 1
0.588235 0.321569 0.176471 1
0.588235 0.321569 0.176471 1
0.588235 0.321569 0.176471 1
0.588235 0.321569 0.176471 1
0.588235 0.321569 0.176471 1
0.588235 0.321569 0.176471 1
0.588235 0.321569 0.176471 1
0.588235 0.321569 0.176471 1
0.588235 0.321569 0.176471 1
0.588235 0.321569 0.176471 1
0.588235 0.321569 0.176471 1
0.588235 0.321569 0.176471 1
0.588235 0.321569 0.176471 1
0.588235 0.321569 0.176471 1
0.588235 0.321569 0.176471 1
0.588235 0.321569 0.176471 1
0.588235 0.321569 0.176471 1
0.588235 0.321569 0.176471 1
0.588235 0.321569 0.176471 1
0.588235 0.321569 0.176471 1
0.588235 0.321569 0.176471 1
0.588235 0.321569 0.176471 1
0.588235 0.321569 0.176471 1
0.588235 0.321569 0.176471 1
0.588235 0.321569 0.176471 1
0.588235 0.321569 0.176471 1
0.588235 0.321569 0.176471 1
0.588235 0.321569 0.176471 1
0.588235 0.321569 0.176471 1
0.588235 0.321569 0.176471 1
0.588235 0.321569 0.176471 1
0.588235 0.321569 0.176471 1
0.588235 0.321569 0.176471 1
0.588235 0.321569 0.176471 1
0.588235 0.321569 0.176471 1
0.588235 0.321569 0.176471 1
0.588235 0.321569 0.176471 1
0.588235 0.321569 0.176471 1
0.588235 0.321569 0.176471 1
0.588235 0.321569 0.176471 1
0.588235 0.321569 0.176471 1
0.588235 0.321569 0.176471 1
0.588235 0.321569 0.176471 1
0.588235 0.321569 0.176471 1
0.588235 0.321569 0.176471 1
0.588235 0.321569 0.176471 1
0.588235 0.321569 0.176471 1
0.588235 0.321569 0.176471 1
0.588235 0.321569 0.176471 1
0.588235 0.321569 0.176471 1
0.588235 0.321569 0.176471 1
0.588235 0.321569 0.176471 1
0.588235 0.321569 0.176471 1
0.588235 0.321569 0.176471 1
0.588235 0.321569 0.176471 1
0.588235 0.321569 0.176471 1
0.588235 0.321569 0.176471 1
0.588235 0.321569 0.176471 1
0.588235 0.321569 0.176471 1
0.588235 0.321569 0.176471 1
0.588235 0.321569 0.176471 1
0.588235 0.321569 0.176471 1
0.588235 0.321569 0.176471 1
0.588235 0.321569 0.176471 1
0.588235 0.321569 0.176471 1
0.588235 0.321569 0.176471 1
0.588235 0.321569 0.176471 1
0.588235 0.321569 0.176471 1
0.588235 0.321569 0.176471 1
0.588235 0.321569 0.176471 1
0.588235 0.321569 0.176471 1
0.588235 0.321569 0.176471 1
0.588235 0.321569 0.176471 1
0.588235 0.321569 0.176471 1
0.588235 0.321569 0.176471 1
0.588235 0.321569 0.176471 1
0.588235 0.321569 0.176471 1
0.588235 0.321569 0.176471 1
0.588235 0.321569 0.176471 1
0.588235 0.321569 0.176471 1
0.588235 0.321569 0.176471 1
0.588235 0.321569 0.176471 1
0.588235 0.321569 0.176471 1
0.588235 0.321569 0.176471 1
0.588235 0.321569 0.176471 1
0.588235 0.321569 0.176471 1
0.588235 0.321569 0.176471 1
0.588235 0.321569 0.176471 1
0.588235 0.321569 0.176471 1
0.588235 0.321569 0.176471 1
0.588235 0.321569 0.176471 1
0.588235 0.321569 0.176471 1
0.588235 0.321569 0.176471 1
0.588235 0.321569 0.176471 1
0.588235 0.321569 0.176471 1
0.588235 0.321569 0.176471 1
0.588235 0.321569 0.176471 1
0.588235 0.321569 0.176471 1
0.588235 0.321569 0.176471 1
0.588235 0.321569 0.176471 1
0.588235 0.321569 0.176471 1
0.588235 0.321569 0.176471 1
0.588235 0.321569 0.176471 1
0.588235 0.321569 0.176471 1
0.588235 0.321569 0.176471 1
0.588235 0.321569 0.176471 1
0.588235 0.321569 0.176471 1
0.588235 0.321569 0.176471 1
0.588235 0.321569 0.176471 1
0.588235 0.321569 0.176471 1
0.588235 0.321569 0.176471 1
0.588235 0.321569 0.176471 1
0.588235 0.321569 0.176471 1
0.588235 0.321569 0.176471 1
0.588235 0.321569 0.176471 1
0.588235 0.321569 0.176471 1
0.588235 0.321569 0.176471 1
0.588235 0.321569 0.176471 1
0.588235 0.321569 0.176471 1
0.588235 0.321569 0.176471 1
0.588235 0.321569 0.176471 1
0.588235 0.321569 0.176471 1
0.588235 0.321569 0.176471 1
0.588235 0.321569 0.176471 1
0.588235 0.321569 0.176471 1
0.588235 0.321569 0.176471 1
0.588235 0.321569 0.176471 1
0.588235 0.321569 0.176471 1
0.588235 0.321569 0.176471 1
0.588235 0.321569 0.176471 1
0.588235 0.321569 0.176471 1
0.588235 0.321569 0.176471 1
0.588235 0.321569 0.176471 1
0.588235 0.321569 0.176471 1
0.588235 0.321569 0.176471 1
0.588235 0.321569 0.176471 1
0.588235 0.321569 0.176471 1
0.588235 0.321569 0.176471 1
0.588235 0.321569 0.176471 1
0.588235 0.321569 0.176471 1
0.588235 0.321569 0.176471 1
0.588235 0.321569 0.176471 1
0.588235 0.321569 0.176471 1
0.588235 0.321569 0.176471 1
0.588235 0.321569 0.176471 1
0.588235 0.321569 0.176471 1
0.588235 0.321569 0.176471 1
0.588235 0.321569 0.176471 1
0.588235 0.321569 0.176471 1
0.588235 0.321569 0.176471 1
0.588235 0.321569 0.176471 1
0.588235 0.321569 0.176471 1
0.588235 0.321569 0.176471 1
0.588235 0.321569 0.176471 1
0.588235 0.321569 0.176471 1
0.588235 0.321569 0.176471 1
0.588235 0.321569 0.176471 1
0.588235 0.321569 0.176471 1
0.588235 0.321569 0.176471 1
0.588235 0.321569 0.176471 1
0.588235 0.321569 0.176471 1
0.588235 0.321569 0.176471 1
0.588235 0.321569 0.176471 1
0.588235 0.321569 0.176471 1
0.588235 0.321569 0.176471 1
0.588235 0.321569 0.176471 1
0.588235 0.321569 0.176471 1
0.588235 0.321569 0.176471 1
0.588235 0.321569 0.176471 1
0.588235 0.321569 0.176471 1
0.588235 0.321569 0.176471 1
0.588235 0.321569 0.176471 1
0.588235 0.321569 0.176471 1
0.588235 0.321569 0.176471 1
0.588235 0.321569 0.176471 1
0.588235 0.321569 0.176471 1
0.588235 0.321569 0.176471 1
0.588235 0.321569 0.176471 1
0.588235 0.321569 0.176471 1
0.588235 0.321569 0.176471 1
0.588235 0.321569 0.176471 1
0.588235 0.321569 0.176471 1
0.588235 0.321569 0.176471 1
0.588235 0.321569 0.176471 1
0.588235 0.321569 0.176471 1
0.588235 0.321569 0.176471 1
0.588235 0.321569 0.176471 1
0.588235 0.321569 0.176471 1
0.588235 0.321569 0.176471 1
0.588235 0.321569 0.176471 1
0.588235 0.321569 0.176471 1
0.588235 0.321569 0.176471 1
0.588235 0.321569 0.176471 1
0.588235 0.321569 0.176471 1
0.588235 0.321569 0.176471 1
0.588235 0.321569 0.176471 1
0.588235 0.321569 0.176471 1
0.588235 0.321569 0.176471 1
0.588235 0.321569 0.176471 1
0.588235 0.321569 0.176471 1
0.588235 0.321569 0.176471 1
0.588235 0.321569 0.176471 1
0.588235 0.321569 0.176471 1
0.588235 0.321569 0.176471 1
0.588235 0.321569 0.176471 1
0.588235 0.321569 0.176471 1
0.588235 0.321569 0.176471 1
0.588235 0.321569 0.176471 1
0.588235 0.321569 0.176471 1
0.588235 0.321569 0.176471 1
0.588235 0.321569 0.176471 1
0.588235 0.321569 0.176471 1
0.588235 0.321569 0.176471 1
0.588235 0.321569 0.176471 1
0.588235 0.321569 0.176471 1
0.588235 0.321569 0.176471 1
0.588235 0.321569 0.176471 1
0.588235 0.321569 0.176471 1
0.588235 0.321569 0.176471 1
0.588235 0.321569 0.176471 1
0.588235 0.321569 0.176471 1
0.588235 0.321569 0.176471 1
0.588235 0.321569 0.176471 1
0.588235 0.321569 0.176471 1
0.588235 0.321569 0.176471 1
0.588235 0.321569 0.176471 1
0.588235 0.321569 0.176471 1
0.588235 0.321569 0.176471 1
0.588235 0.321569 0.176471 1
0.588235 0.321569 0.176471 1
0.588235 0.321569 0.176471 1
0.588235 0.321569 0.176471 1
0.588235 0.321569 0.176471 1
0.588235 0.321569 0.176471 1
0.588235 0.321569 0.176471 1
0.588235 0.321569 0.176471 1
0.588235 0.321569 0.176471 1
0.588235 0.321569 0.176471 1
0.588235 0.321569 0.176471 1
0.588235 0.321569 0.176471 1
0.588235 0.321569 0.176471 1
0.588235 0.321569 0.176471 1
0.588235 0.321569 0.176471 1
0.588235 0.321569 0.176471 1
0.588235 0.321569 0.176471 1
0.588235 0.321569 0.176471 1
0.588235 0.321569 0.176471 1
0.588235 0.321569 0.176471 1
0.588235 0.321569 0.176471 1
0.588235 0.321569 0.176471 1
0.588235 0.321569 0.176471 1
0.588235 0.321569 0.176471 1
0.588235 0.321569 0.176471 1
0.588235 0.321569 0.176471 1
0.588235 0.321569 0.176471 1
0.588235 0.321569 0.176471 1
0.588235 0.321569 0.176471 1
0.588235 0.321569 0.176471 1
0.588235 0.321569 0.176471 1
0.588235 0.321569 0.176471 1
0.588235 0.321569 0.176471 1
0.588235 0.321569 0.176471 1
0.588235 0.321569 0.176471 1
0.588235 0.321569 0.176471 1
0.588235 0.321569 0.176471 1
0.588235 0.321569 0.176471 1
0.588235 0.321569 0.176471 1
0.588235 0.321569 0.176471 1
0.588235 0.321569 0.176471 1
0.588235 0.321569 0.176471 1
0.588235 0.321569 0.176471 1
0.588235 0.321569 0.176471 1
0.588235 0.321569 0.176471 1
0.588235 0.321569 0.176471 1
0.588235 0.321569 0.176471 1
0.588235 0.321569 0.176471 1
0.588235 0.321569 0.176471 1
0.588235 0.321569 0.176471 1
0.588235 0.321569 0.176471 1
0.588235 0.321569 0.176471 1
0.588235 0.321569 0.176471 1
0.588235 0.321569 0.176471 1
0.588235 0.321569 0.176471 1
0.588235 0.321569 0.176471 1
0.588235 0.321569 0.176471 1
0.588235 0.321569 0.176471 1
0.588235 0.321569 0.176471 1
0.588235 0.321569 0.176471 1
0.588235 0.321569 0.176471 1
0.588235 0.321569 0.176471 1
0.588235 0.321569 0.176471 1
0.588235 0.321569 0.176471 1
0.588235 0.321569 0.176471 1
0.588235 0.321569 0.176471 1
0.588235 0.321569 0.176471 1
0.588235 0.321569 0.176471 1
0.588235 0.321569 0.176471 1
0.588235 0.321569 0.176471 1
0.588235 0.321569 0.176471 1
0.588235 0.321569 0.176471 1
0.588235 0.321569 0.176471 1
0.588235 0.321569 0.176471 1
0.588235 0.321569 0.176471 1
0.588235 0.321569 0.176471 1
0.588235 0.321569 0.176471 1
0.588235 0.321569 0.176471 1
0.588235 0.321569 0.176471 1
0.588235 0.321569 0.176471 1
0.588235 0.321569 0.176471 1
0.588235 0.321569 0.176471 1
0.588235 0.321569 0.176471 1
0.588235 0.321569 0.176471 1
0.588235 0.321569 0.176471 1
0.588235 0.321569 0.176471 1
0.588235 0.321569 0.176471 1
0.588235 0.321569 0.176471 1
0.588235 0.321569 0.176471 1
0.588235 0.321569 0.176471 1
0.588235 0.321569 0.176471 1
0.588235 0.321569 0.176471 1
0.588235 0.321569 0.176471 1
0.588235 0.321569 0.176471 1
0.588235 0.321569 0.176471 1
0.588235 0.321569 0.176471 1
0.588235 0.321569 0.176471 1
0.588235 0.321569 0.176471 1
0.588235 0.321569 0.176471 1
0.588235 0.321569 0.176471 1
0.588235 0.321569 0.176471 1
0.588235 0.321569 0.176471 1
0.588235 0.321569 0.176471 1
0.588235 0.321569 0.176471 1
0.588235 0.321569 0.176471 1
0.588235 0.321569 0.176471 1
0.588235 0.321569 0.176471 1
0.588235 0.321569 0.176471 1
0.588235 0.321569 0.176471 1
0.588235 0.321569 0.176471 1
0.588235 0.321569 0.176471 1
0.588235 0.321569 0.176471 1
0.588235 0.321569 0.176471 1
0.588235 0.321569 0.176471 1
0.588235 0.321569 0.176471 1
0.588235 0.321569 0.176471 1
0.588235 0.321569 0.176471 1
0.588235 0.321569 0.176471 1
0.588235 0.321569 0.176471 1
0.588235 0.321569 0.176471 1
0.588235 0.321569 0.176471 1
0.588235 0.321569 0.176471 1
0.588235 0.321569 0.176471 1
0.588235 0.321569 0.176471 1
0.588235 0.321569 0.176471 1
0.588235 0.321569 0.176471 1
0.588235 0.321569 0.176471 1
0.588235 0.321569 0.176471 1
0.588235 0.321569 0.176471 1
0.588235 0.321569 0.176471 1
0.588235 0.321569 0.176471 1
0.588235 0.321569 0.176471 1
0.588235 0.321569 0.176471 1
0.588235 0.321569 0.176471 1
0.588235 0.321569 0.176471 1
0.588235 0.321569 0.176471 1
0.588235 0.321569 0.176471 1
0.588235 0.321569 0.176471 1
0.588235 0.321569 0.176471 1
0.588235 0.321569 0.176471 1
0.588235 0.321569 0.176471 1
0.588235 0.321569 0.176471 1
0.588235 0.321569 0.176471 1
0.588235 0.321569 0.176471 1
0.588235 0.321569 0.176471 1
0.588235 0.321569 0.176471 1
0.588235 0.321569 0.176471 1
0.588235 0.321569 0.176471 1
0.588235 0.321569 0.176471 1
0.588235 0.321569 0.176471 1
0.588235 0.321569 0.176471 1
0.588235 0.321569 0.176471 1
0.588235 0.321569 0.176471 1
0.588235 0.321569 0.176471 1
0.588235 0.321569 0.176471 1
0.588235 0.321569 0.176471 1
0.588235 0.321569 0.176471 1
0.588235 0.321569 0.176471 1
0.588235 0.321569 0.176471 1
0.588235 0.321569 0.176471 1
0.588235 0.321569 0.176471 1
0.588235 0.321569 0.176471 1
0.588235 0.321569 0.176471 1
0.588235 0.321569 0.176471 1
0.588235 0.321569 0.176471 1
0.588235 0.321569 0.176471 1
0.588235 0.321569 0.176471 1
0.588235 0.321569 0.176471 1
0.588235 0.321569 0.176471 1
0.588235 0.321569 0.176471 1
0.588235 0.321569 0.176471 1
0.588235 0.321569 0.176471 1
0.588235 0.321569 0.176471 1
0.588235 0.321569 0.176471 1
0.588235 0.321569 0.176471 1
0.588235 0.321569 0.176471 1
0.588235 0.321569 0.176471 1
0.588235 0.321569 0.176471 1
0.588235 0.321569 0.176471 1
0.588235 0.321569 0.176471 1
0.588235 0.321569 0.176471 1
0.588235 0.321569 0.176471 1
0.588235 0.321569 0.176471 1
0.588235 0.321569 0.176471 1
0.588235 0.321569 0.176471 1
0.588235 0.321569 0.176471 1
0.588235 0.321569 0.176471 1
0.588235 0.321569 0.176471 1
0.588235 0.321569 0.176471 1
0.588235 0.321569 0.176471 1
0.588235 0.321569 0.176471 1
0.588235 0.321569 0.176471 1
0.588235 0.321569 0.176471 1
0.588235 0.321569 0.176471 1
0.588235 0.321569 0.176471 1
0.588235 0.321569 0.176471 1
0.588235 0.321569 0.176471 1
0.588235 0.321569 0.176471 1
0.588235 0.321569 0.176471 1
0.588235 0.321569 0.176471 1
0.588235 0.321569 0.176471 1
0.588235 0.321569 0.176471 1
0.588235 0.321569 0.176471 1
0.588235 0.321569 0.176471 1
0.588235 0.321569 0.176471 1
0.588235 0.321569 0.176471 1
0.588235 0.321569 0.176471 1
0.588235 0.321569 0.176471 1
0.588235 0.321569 0.176471 1
0.588235 0.321569 0.176471 1
0.588235 0.321569 0.176471 1
0.588235 0.321569 0.176471 1
0.588235 0.321569 0.176471 1
0.588235 0.321569 0.176471 1
0.588235 0.321569 0.176471 1
0.588235 0.321569 0.176471 1
0.588235 0.321569 0.176471 1
0.588235 0.321569 0.176471 1
0.588235 0.321569 0.176471 1
0.588235 0.321569 0.176471 1
0.588235 0.321569 0.176471 1
0.588235 0.321569 0.176471 1
0.588235 0.321569 0.176471 1
0.588235 0.321569 0.176471 1
0.588235 0.321569 0.176471 1
0.588235 0.321569 0.176471 1
0.588235 0.321569 0.176471 1
0.588235 0.321569 0.176471 1
0.588235 0.321569 0.176471 1
0.588235 0.321569 0.176471 1
0.588235 0.321569 0.176471 1
0.588235 0.321569 0.176471 1
0.588235 0.321569 0.176471 1
0.588235 0.321569 0.176471 1
0.588235 0.321569 0.176471 1
0.588235 0.321569 0.176471 1
0.588235 0.321569 0.176471 1
0.588235 0.321569 0.176471 1
0.588235 0.321569 0.176471 1
0.588235 0.321569 0.176471 1
0.588235 0.321569 0.176471 1
0.588235 0.321569 0.176471 1
0.588235 0.321569 0.176471 1
0.588235 0.321569 0.176471 1
0.588235 0.321569 0.176471 1
0.588235 0.321569 0.176471 1
0.588235 0.321569 0.176471 1
0.588235 0.321569 0.176471 1
0.588235 0.321569 0.176471 1
0.588235 0.321569 0.176471 1
0.588235 0.321569 0.176471 1
0.588235 0.321569 0.176471 1
0.588235 0.321569 0.176471 1
0.588235 0.321569 0.176471 1
0.588235 0.321569 0.176471 1
0.588235 0.321569 0.176471 1
0.588235 0.321569 0.176471 1
0.588235 0.321569 0.176471 1
0.588235 0.321569 0.176471 1
0.588235 0.321569 0.176471 1
0.588235 0.321569 0.176471 1
0.588235 0.321569 0.176471 1
0.588235 0.321569 0.176471 1
0.588235 0.321569 0.176471 1
0.588235 0.321569 0.176471 1
0.588235 0.321569 0.176471 1
0.588235 0.321569 0.176471 1
0.588235 0.321569 0.176471 1
0.588235 0.321569 0.176471 1
0.588235 0.321569 0.176471 1
0.588235 0.321569 0.176471 1
0.588235 0.321569 0.176471 1
0.588235 0.321569 0.176471 1
0.588235 0.321569 0.176471 1
0.588235 0.321569 0.176471 1
0.588235 0.321569 0.176471 1
0.588235 0.321569 0.176471 1
0.588235 0.321569 0.176471 1
0.588235 0.321569 0.176471 1
0.588235 0.321569 0.176471 1
0.588235 0.321569 0.176471 1
0.588235 0.321569 0.176471 1
0.588235 0.321569 0.176471 1
0.588235 0.321569 0.176471 1
0.588235 0.321569 0.176471 1
0.588235 0.321569 0.176471 1
0.588235 0.321569 0.176471 1
0.588235 0.321569 0.176471 1
0.588235 0.321569 0.176471 1
0.588235 0.321569 0.176471 1
0.588235 0.321569 0.176471 1
0.588235 0.321569 0.176471 1
0.588235 0.321569 0.176471 1
0.588235 0.321569 0.176471 1
0.588235 0.321569 0.176471 1
0.588235 0.321569 0.176471 1
0.588235 0.321569 0.176471 1
0.588235 0.321569 0.176471 1
0.588235 0.321569 0.176471 1
0.588235 0.321569 0.176471 1
0.588235 0.321569 0.176471 1
0.588235 0.321569 0.176471 1
0.588235 0.321569 0.176471 1
0.588235 0.321569 0.176471 1
0.588235 0.321569 0.176471 1
0.588235 0.321569 0.176471 1
0.588235 0.321569 0.176471 1
0.588235 0.321569 0.176471 1
0.588235 0.321569 0.176471 1
0.588235 0.321569 0.176471 1
0.588235 0.321569 0.176471 1
0.588235 0.321569 0.176471 1
0.588235 0.321569 0.176471 1
0.588235 0.321569 0.176471 1
0.588235 0.321569 0.176471 1
0.588235 0.321569 0.176471 1
0.588235 0.321569 0.176471 1
0.588235 0.321569 0.176471 1
0.588235 0.321569 0.176471 1
0.588235 0.321569 0.176471 1
0.588235 0.321569 0.176471 1
0.588235 0.321569 0.176471 1
0.588235 0.321569 0.176471 1
0.588235 0.321569 0.176471 1
0.588235 0.321569 0.176471 1
0.588235 0.321569 0.176471 1
0.588235 0.321569 0.176471 1
0.588235 0.321569 0.176471 1
0.588235 0.321569 0.176471 1
0.588235 0.321569 0.176471 1
0.588235 0.321569 0.176471 1
0.588235 0.321569 0.176471 1
0.588235 0.321569 0.176471 1
0.588235 0.321569 0.176471 1
0.588235 0.321569 0.176471 1
0.588235 0.321569 0.176471 1
0.588235 0.321569 0.176471 1
0.588235 0.321569 0.176471 1
0.588235 0.321569 0.176471 1
0.588235 0.321569 0.176471 1
0.588235 0.321569 0.176471 1
0.588235 0.321569 0.176471 1
0.588235 0.321569 0.176471 1
0.588235 0.321569 0.176471 1
0.588235 0.321569 0.176471 1
0.588235 0.321569 0.176471 1
0.588235 0.321569 0.176471 1
0.588235 0.321569 0.176471 1
0.588235 0.321569 0.176471 1
0.588235 0.321569 0.176471 1
0.588235 0.321569 0.176471 1
0.588235 0.321569 0.176471 1
0.588235 0.321569 0.176471 1
0.588235 0.321569 0.176471 1
0.588235 0.321569 0.176471 1
0.588235 0.321569 0.176471 1
0.588235 0.321569 0.176471 1
0.588235 0.321569 0.176471 1
0.588235 0.321569 0.176471 1
0.588235 0.321569 0.176471 1
0.588235 0.321569 0.176471 1
0.588235 0.321569 0.176471 1
0.588235 0.321569 0.176471 1
0.588235 0.321569 0.176471 1
0.588235 0.321569 0.176471 1
0.588235 0.321569 0.176471 1
0.588235 0.321569 0.176471 1
0.588235 0.321569 0.176471 1
0.588235 0.321569 0.176471 1
0.588235 0.321569 0.176471 1
0.588235 0.321569 0.176471 1
0.588235 0.321569 0.176471 1
0.588235 0.321569 0.176471 1
0.588235 0.321569 0.176471 1
0.588235 0.321569 0.176471 1
0.588235 0.321569 0.176471 1
0.588235 0.321569 0.176471 1
0.588235 0.321569 0.176471 1
0.588235 0.321569 0.176471 1
0.588235 0.321569 0.176471 1
0.588235 0.321569 0.176471 1
0.588235 0.321569 0.176471 1
0.588235 0.321569 0.176471 1
0.588235 0.321569 0.176471 1
0.588235 0.321569 0.176471 1
0.588235 0.321569 0.176471 1
0.588235 0.321569 0.176471 1
0.588235 0.321569 0.176471 1
0.588235 0.321569 0.176471 1
0.588235 0.321569 0.176471 1
0.588235 0.321569 0.176471 1
0.588235 0.321569 0.176471 1
0.588235 0.321569 0.176471 1
0.588235 0.321569 0.176471 1
0.588235 0.321569 0.176471 1
0.588235 0.321569 0.176471 1
0.588235 0.321569 0.176471 1
0.588235 0.321569 0.176471 1
0.588235 0.321569 0.176471 1
0.588235 0.321569 0.176471 1
0.588235 0.321569 0.176471 1
0.588235 0.321569 0.176471 1
0.588235 0.321569 0.176471 1
0.588235 0.321569 0.176471 1
0.588235 0.321569 0.176471 1
0.588235 0.321569 0.176471 1
0.588235 0.321569 0.176471 1
0.588235 0.321569 0.176471 1
0.588235 0.321569 0.176471 1
0.588235 0.321569 0.176471 1
0.588235 0.321569 0.176471 1
0.588235 0.321569 0.176471 1
0.588235 0.321569 0.176471 1
0.588235 0.321569 0.176471 1
0.588235 0.321569 0.176471 1
0.588235 0.321569 0.176471 1
0.588235 0.321569 0.176471 1
0.588235 0.321569 0.176471 1
0.588235 0.321569 0.176471 1
0.588235 0.321569 0.176471 1
0.588235 0.321569 0.176471 1
0.588235 0.321569 0.176471 1
0.588235 0.321569 0.176471 1
0.588235 0.321569 0.176471 1
0.588235 0.321569 0.176471 1
0.588235 0.321569 0.176471 1
0.588235 0.321569 0.176471 1
0.588235 0.321569 0.176471 1