# vtk DataFile Version 3.0
Gocad TSurf to VTK
ASCII
DATASET POLYDATA
POINTS 748 float
21560475.000 4574725.000 -355.000
21561300.000 4575160.000 -343.750
21561000.000 4575310.000 -347.500
21561500.000 4575505.000 -312.500
21560450.000 4575020.000 -355.000
21560500.000 4574430.000 -355.000
21561600.000 4575010.000 -340.000
21560375.000 4574687.500 -365.000
21560250.000 4574945.000 -375.000
21560075.000 4574552.500 -428.750
21560050.000 4574855.000 -417.500
21560100.000 4574250.000 -440.000
21559975.000 4574515.000 -457.500
21560500.000 4574280.000 -372.500
21560200.000 4574145.000 -436.250
21560575.000 4574307.500 -323.750
21560650.000 4574185.000 -292.500
21560625.000 4574327.500 -313.750
21560725.000 4574370.000 -321.250
21560750.000 4574225.000 -272.500
21561550.000 4574805.000 -310.000
21560950.000 4574310.000 -287.500
21561725.000 4574865.000 -316.250
21561850.000 4574720.000 -292.500
21561850.000 4574912.500 -310.000
21562500.000 4575470.000 -275.000
21562525.000 4575257.500 -261.250
21562225.000 4575602.500 -277.500
21562350.000 4575650.000 -257.500
21561550.000 4575257.500 -326.250
21561950.000 4575735.000 -280.000
21561675.000 4575867.500 -282.500
21562050.000 4576010.000 -222.500
21561450.000 4575752.500 -298.750
21561400.000 4576000.000 -285.000
21560700.000 4575460.000 -351.250
21560400.000 4575610.000 -355.000
21560425.000 4575315.000 -355.000
21560475.000 4575792.500 -327.500
21561225.000 4576085.000 -275.000
21560275.000 4575722.500 -345.000
21560150.000 4575835.000 -335.000
21560000.000 4575460.000 -395.000
21559975.000 4575610.000 -375.000
21560125.000 4575202.500 -385.000
21560025.000 4575157.500 -406.250
21559600.000 4575310.000 -510.000
21559725.000 4575045.000 -492.500
21559850.000 4575562.500 -378.750
21559550.000 4575450.000 -465.000
21559700.000 4575665.000 -362.500
21559550.000 4575450.000 -465.000
21559500.000 4575590.000 -420.000
21559475.000 4575422.500 -478.750
21559400.000 4575390.000 -540.000
21559350.000 4575535.000 -447.500
21558800.000 4574970.000 -825.000
21558800.000 4575135.000 -776.250
21559575.000 4574960.000 -547.500
21558975.000 4574705.000 -783.750
21559850.000 4574780.000 -475.000
21559550.000 4574610.000 -585.000
21559525.000 4574260.000 -622.500
21559150.000 4574440.000 -742.500
21559500.000 4573910.000 -660.000
21559325.000 4574175.000 -701.250
21560000.000 4574075.000 -453.750
21559550.000 4573820.000 -618.750
21560150.000 4574127.500 -446.250
21560200.000 4574005.000 -452.500
21560300.000 4574040.000 -432.500
21560500.000 4574130.000 -390.000
21560250.000 4573882.500 -458.750
21560400.000 4573935.000 -428.750
21559900.000 4573900.000 -467.500
21559800.000 4573725.000 -481.250
21559600.000 4573730.000 -577.500
21560300.000 4573760.000 -465.000
21559700.000 4573550.000 -495.000
21559650.000 4573640.000 -536.250
21559875.000 4573402.500 -528.750
21559600.000 4573325.000 -550.000
21560325.000 4573560.000 -506.250
21560050.000 4573255.000 -562.500
21560475.000 4573612.500 -476.250
21560450.000 4573395.000 -527.500
21560500.000 4573830.000 -425.000
21560700.000 4573675.000 -446.250
21560500.000 4573980.000 -407.500
21560800.000 4573940.000 -230.000
21560725.000 4574062.500 -261.250
21560875.000 4574122.500 -231.250
21561000.000 4574020.000 -190.000
21561175.000 4574250.000 -253.750
21561500.000 4574600.000 -280.000
21561400.000 4574190.000 -220.000
21561450.000 4574395.000 -250.000
21561150.000 4573842.500 -227.500
21561075.000 4573817.500 -270.000
21561450.000 4573970.000 -250.000
21561300.000 4573665.000 -265.000
21561550.000 4574000.000 -233.750
21561500.000 4573750.000 -280.000
21562075.000 4574180.000 -252.500
21562050.000 4573930.000 -260.000
21562100.000 4574430.000 -245.000
21562450.000 4574322.500 -233.750
21561975.000 4574575.000 -268.750
21562350.000 4574717.500 -250.000
21562100.000 4574815.000 -280.000
21562550.000 4575045.000 -247.500
21562600.000 4575282.500 -240.000
21562700.000 4575095.000 -205.000
21562975.000 4575477.500 -187.500
21562950.000 4575225.000 -170.000
21563000.000 4575730.000 -205.000
21563275.000 4575605.000 -71.250
21562475.000 4575700.000 -216.250
21562850.000 4575895.000 -163.750
21562200.000 4575830.000 -240.000
21562450.000 4575930.000 -157.500
21562425.000 4576160.000 -98.750
21562700.000 4576060.000 -122.500
21561900.000 4576190.000 -205.000
21562400.000 4576390.000 -40.000
21561450.000 4576180.000 -223.750
21561825.000 4576322.500 -163.750
21561350.000 4576140.000 -243.750
21561300.000 4576280.000 -202.500
21561050.000 4576170.000 -265.000
21560550.000 4575975.000 -300.000
21561250.000 4576420.000 -161.250
21561500.000 4576360.000 -162.500
21560875.000 4576255.000 -255.000
21560625.000 4576157.500 -272.500
21561200.000 4576560.000 -120.000
21561550.000 4576540.000 -101.250
21560700.000 4576340.000 -245.000
21560750.000 4576507.500 -213.750
21561125.000 4576672.500 -120.000
21560575.000 4576445.000 -268.750
21560450.000 4576550.000 -292.500
21559975.000 4576235.000 -321.250
21560050.000 4576410.000 -327.500
21559900.000 4576060.000 -315.000
21559650.000 4576117.500 -401.250
21560025.000 4575947.500 -325.000
21559925.000 4575910.000 -335.000
21559950.000 4575760.000 -355.000
21559550.000 4575767.500 -346.250
21559400.000 4575870.000 -330.000
21559450.000 4575730.000 -375.000
21559275.000 4575975.000 -412.500
21559400.000 4576175.000 -487.500
21559275.000 4575975.000 -412.500
21559150.000 4576080.000 -495.000
21559100.000 4575760.000 -385.000
21559050.000 4575892.500 -453.750
21559225.000 4575647.500 -416.250
21559000.000 4575550.000 -600.000
21559450.000 4575730.000 -375.000
21559500.000 4575590.000 -420.000
21559200.000 4575470.000 -570.000
21558800.000 4575300.000 -727.500
21558800.000 4575465.000 -678.750
21558650.000 4575240.000 -762.500
21558725.000 4575105.000 -793.750
21558575.000 4575375.000 -731.250
21558425.000 4575322.500 -768.750
21558500.000 4575510.000 -700.000
21558350.000 4575135.000 -837.500
21558275.000 4574947.500 -906.250
21558200.000 4574760.000 -975.000
21558525.000 4574547.500 -896.250
21558225.000 4574395.000 -947.500
21558850.000 4574335.000 -817.500
21558250.000 4574030.000 -920.000
21559175.000 4574122.500 -738.750
21558275.000 4573665.000 -892.500
21558300.000 4573300.000 -865.000
21558500.000 4573302.500 -778.750
21558400.000 4573262.500 -772.500
21559400.000 4573760.000 -625.000
21558700.000 4573305.000 -692.500
21559300.000 4573610.000 -590.000
21559200.000 4573460.000 -555.000
21558900.000 4573307.500 -606.250
21559100.000 4573310.000 -520.000
21559150.000 4573145.000 -568.750
21559500.000 4573100.000 -605.000
21558850.000 4573025.000 -550.000
21559000.000 4572900.000 -605.000
21558700.000 4573150.000 -495.000
21558775.000 4572995.000 -567.500
21558600.000 4573187.500 -587.500
21558400.000 4573070.000 -480.000
21558375.000 4573127.500 -576.250
21558550.000 4572935.000 -556.250
21558400.000 4572882.500 -567.500
21558700.000 4572800.000 -632.500
21558600.000 4572765.000 -640.000
21558850.000 4572840.000 -640.000
21558850.000 4572665.000 -708.750
21558925.000 4572685.000 -712.500
21559150.000 4572775.000 -660.000
21559000.000 4572530.000 -785.000
21558800.000 4572647.500 -712.500
21557975.000 4572407.500 -930.000
21558050.000 4572605.000 -785.000
21557900.000 4572210.000 -1075.000
21557875.000 4572370.000 -1010.000
21558175.000 4571912.500 -985.000
21558000.000 4571885.000 -1006.250
21559000.000 4572152.500 -767.500
21558450.000 4571615.000 -895.000
21559125.000 4572177.500 -743.750
21559250.000 4571825.000 -702.500
21559350.000 4572267.500 -691.250
21559400.000 4571885.000 -667.500
21559300.000 4572650.000 -715.000
21560175.000 4572500.000 -627.500
21559250.000 4572815.000 -666.250
21559400.000 4572875.000 -660.000
21559200.000 4572980.000 -617.500
21560225.000 4573107.500 -596.250
21560400.000 4572960.000 -630.000
21560375.000 4573160.000 -588.750
21560850.000 4572687.500 -537.500
21560400.000 4572165.000 -565.000
21561300.000 4573210.000 -510.000
21561075.000 4572762.500 -410.000
21561100.000 4573365.000 -488.750
21561175.000 4573392.500 -440.000
21560425.000 4573177.500 -578.750
21560900.000 4573520.000 -467.500
21560350.000 4573360.000 -547.500
21560925.000 4573757.500 -300.000
21561050.000 4573575.000 -370.000
21561150.000 4573615.000 -350.000
21561225.000 4573412.500 -430.000
21561450.000 4573487.500 -302.500
21561600.000 4573310.000 -340.000
21561550.000 4573530.000 -310.000
21561375.000 4572852.500 -361.250
21560750.000 4572275.000 -447.500
21562000.000 4573430.000 -275.000
21561850.000 4573620.000 -261.250
21562025.000 4573680.000 -267.500
21561700.000 4573810.000 -247.500
21562150.000 4573727.500 -261.250
21562300.000 4574025.000 -247.500
21562225.000 4573752.500 -240.000
21562450.000 4574075.000 -205.000
21562675.000 4574397.500 -170.000
21562600.000 4574620.000 -220.000
21562900.000 4574720.000 -135.000
21562575.000 4574832.500 -233.750
21562800.000 4574907.500 -170.000
21562925.000 4574972.500 -152.500
21563025.000 4575015.000 -113.750
21563150.000 4575310.000 -92.500
21563025.000 4575015.000 -113.750
21563150.000 4575310.000 -92.500
21563275.000 4575605.000 -71.250
21563300.000 4575390.000 -92.500
21563400.000 4575900.000 -50.000
21563500.000 4575725.000 -71.250
21562975.000 4575940.000 -152.500
21563275.000 4576067.500 -36.250
21562950.000 4576150.000 -100.000
21562925.000 4576360.000 -47.500
21563150.000 4576235.000 -22.500
21562550.000 4576225.000 -81.250
21562900.000 4576570.000 5.000
21563025.000 4576402.500 -8.750
21562750.000 4576672.500 7.500
21562825.000 4576705.000 52.500
21562375.000 4576537.500 -26.250
21562600.000 4576775.000 10.000
21562200.000 4576472.500 -40.000
21562350.000 4576685.000 -12.500
21561825.000 4576322.500 -163.750
21562000.000 4576555.000 -40.000
21561750.000 4576455.000 -122.500
21561750.000 4576455.000 -122.500
21561675.000 4576587.500 -81.250
21561600.000 4576720.000 -40.000
21561675.000 4576587.500 -81.250
21561200.000 4576697.500 -88.750
21561500.000 4576817.500 -28.750
21561050.000 4576785.000 -120.000
21561200.000 4576835.000 -57.500
[...]
POINT_DATA 748
COLOR_SCALARS GocadColor 4
0.129458 0.541176 0.129458 1
0.129458 0.541176 0.129458 1
0.129458 0.541176 0.129458 1
0.129458 0.541176 0.129458 1
0.129458 0.541176 0.129458 1
0.129458 0.541176 0.129458 1
0.129458 0.541176 0.129458 1
0.129458 0.541176 0.129458 1
0.129458 0.541176 0.129458 1
0.129458 0.541176 0.129458 1
0.129458 0.541176 0.129458 1
0.129458 0.541176 0.129458 1
0.129458 0.541176 0.129458 1
0.129458 0.541176 0.129458 1
0.129458 0.541176 0.129458 1
0.129458 0.541176 0.129458 1
0.129458 0.541176 0.129458 1
0.129458 0.541176 0.129458 1
0.129458 0.541176 0.129458 1
0.129458 0.541176 0.129458 1
0.129458 0.541176 0.129458 1
0.129458 0.541176 0.129458 1
0.129458 0.541176 0.129458 1
0.129458 0.541176 0.129458 1
0.129458 0.541176 0.129458 1
0.129458 0.541176 0.129458 1
0.129458 0.541176 0.129458 1
0.129458 0.541176 0.129458 1
0.129458 0.541176 0.129458 1
0.129458 0.541176 0.129458 1
0.129458 0.541176 0.129458 1
0.129458 0.541176 0.129458 1
0.129458 0.541176 0.129458 1
0.129458 0.541176 0.129458 1
0.129458 0.541176 0.129458 1
0.129458 0.541176 0.129458 1
0.129458 0.541176 0.129458 1
0.129458 0.541176 0.129458 1
0.129458 0.541176 0.129458 1
0.129458 0.541176 0.129458 1
0.129458 0.541176 0.129458 1
0.129458 0.541176 0.129458 1
0.129458 0.541176 0.129458 1
0.129458 0.541176 0.129458 1
0.129458 0.541176 0.129458 1
0.129458 0.541176 0.129458 1
0.129458 0.541176 0.129458 1
0.129458 0.541176 0.129458 1
0.129458 0.541176 0.129458 1
0.129458 0.541176 0.129458 1
0.129458 0.541176 0.129458 1
0.129458 0.541176 0.129458 1
0.129458 0.541176 0.129458 1
0.129458 0.541176 0.129458 1
0.129458 0.541176 0.129458 1
0.129458 0.541176 0.129458 1
0.129458 0.541176 0.129458 1
0.129458 0.541176 0.129458 1
0.129458 0.541176 0.129458 1
0.129458 0.541176 0.129458 1
0.129458 0.541176 0.129458 1
0.129458 0.541176 0.129458 1
0.129458 0.541176 0.129458 1
0.129458 0.541176 0.129458 1
0.129458 0.541176 0.129458 1
0.129458 0.541176 0.129458 1
0.129458 0.541176 0.129458 1
0.129458 0.541176 0.129458 1
0.129458 0.541176 0.129458 1
0.129458 0.541176 0.129458 1
0.129458 0.541176 0.129458 1
0.129458 0.541176 0.129458 1
0.129458 0.541176 0.129458 1
0.129458 0.541176 0.129458 1
0.129458 0.541176 0.129458 1
0.129458 0.541176 0.129458 1
0.129458 0.541176 0.129458 1
0.129458 0.541176 0.129458 1
0.129458 0.541176 0.129458 1
0.129458 0.541176 0.129458 1
0.129458 0.541176 0.129458 1
0.129458 0.541176 0.129458 1
0.129458 0.541176 0.129458 1
0.129458 0.541176 0.129458 1
0.129458 0.541176 0.129458 1
0.129458 0.541176 0.129458 1
0.129458 0.541176 0.129458 1
0.129458 0.541176 0.129458 1
0.129458 0.541176 0.129458 1
0.129458 0.541176 0.129458 1
0.129458 0.541176 0.129458 1
0.129458 0.541176 0.129458 1
0.129458 0.541176 0.129458 1
0.129458 0.541176 0.129458 1
0.129458 0.541176 0.129458 1
0.129458 0.541176 0.129458 1
0.129458 0.541176 0.129458 1
0.129458 0.541176 0.129458 1
0.129458 0.541176 0.129458 1
0.129458 0.541176 0.129458 1
0.129458 0.541176 0.129458 1
0.129458 0.541176 0.129458 1
0.129458 0.541176 0.129458 1
0.129458 0.541176 0.129458 1
0.129458 0.541176 0.129458 1
0.129458 0.541176 0.129458 1
0.129458 0.541176 0.129458 1
0.129458 0.541176 0.129458 1
0.129458 0.541176 0.129458 1
0.129458 0.541176 0.129458 1
0.129458 0.541176 0.129458 1
0.129458 0.541176 0.129458 1
0.129458 0.541176 0.129458 1
0.129458 0.541176 0.129458 1
0.129458 0.541176 0.129458 1
0.129458 0.541176 0.129458 1
0.129458 0.541176 0.129458 1
0.129458 0.541176 0.129458 1
0.129458 0.541176 0.129458 1
0.129458 0.541176 0.129458 1
0.129458 0.541176 0.129458 1
0.129458 0.541176 0.129458 1
0.129458 0.541176 0.129458 1
0.129458 0.541176 0.129458 1
0.129458 0.541176 0.129458 1
0.129458 0.541176 0.129458 1
0.129458 0.541176 0.129458 1
0.129458 0.541176 0.129458 1
0.129458 0.541176 0.129458 1
0.129458 0.541176 0.129458 1
0.129458 0.541176 0.129458 1
0.129458 0.541176 0.129458 1
0.129458 0.541176 0.129458 1
0.129458 0.541176 0.129458 1
0.129458 0.541176 0.129458 1
0.129458 0.541176 0.129458 1
0.129458 0.541176 0.129458 1
0.129458 0.541176 0.129458 1
0.129458 0.541176 0.129458 1
0.129458 0.541176 0.129458 1
0.129458 0.541176 0.129458 1
0.129458 0.541176 0.129458 1
0.129458 0.541176 0.129458 1
0.129458 0.541176 0.129458 1
0.129458 0.541176 0.129458 1
0.129458 0.541176 0.129458 1
0.129458 0.541176 0.129458 1
0.129458 0.541176 0.129458 1
0.129458 0.541176 0.129458 1
0.129458 0.541176 0.129458 1
0.129458 0.541176 0.129458 1
0.129458 0.541176 0.129458 1
0.129458 0.541176 0.129458 1
0.129458 0.541176 0.129458 1
0.129458 0.541176 0.129458 1
0.129458 0.541176 0.129458 1
0.129458 0.541176 0.129458 1
0.129458 0.541176 0.129458 1
0.129458 0.541176 0.129458 1
0.129458 0.541176 0.129458 1
0.129458 0.541176 0.129458 1
0.129458 0.541176 0.129458 1
0.129458 0.541176 0.129458 1
0.129458 0.541176 0.129458 1
0.129458 0.541176 0.129458 1
0.129458 0.541176 0.129458 1
0.129458 0.541176 0.129458 1
0.129458 0.541176 0.129458 1
0.129458 0.541176 0.129458 1
0.129458 0.541176 0.129458 1
0.129458 0.541176 0.129458 1
0.129458 0.541176 0.129458 1
0.129458 0.541176 0.129458 1
0.129458 0.541176 0.129458 1
0.129458 0.541176 0.129458 1
0.129458 0.541176 0.129458 1
0.129458 0.541176 0.129458 1
0.129458 0.541176 0.129458 1
0.129458 0.541176 0.129458 1
0.129458 0.541176 0.129458 1
0.129458 0.541176 0.129458 1
0.129458 0.541176 0.129458 1
0.129458 0.541176 0.129458 1
0.129458 0.541176 0.129458 1
0.129458 0.541176 0.129458 1
0.129458 0.541176 0.129458 1
0.129458 0.541176 0.129458 1
0.129458 0.541176 0.129458 1
0.129458 0.541176 0.129458 1
0.129458 0.541176 0.129458 1
0.129458 0.541176 0.129458 1
0.129458 0.541176 0.129458 1
0.129458 0.541176 0.129458 1
0.129458 0.541176 0.129458 1
0.129458 0.541176 0.129458 1
0.129458 0.541176 0.129458 1
0.129458 0.541176 0.129458 1
0.129458 0.541176 0.129458 1
0.129458 0.541176 0.129458 1
0.129458 0.541176 0.129458 1
0.129458 0.541176 0.129458 1
0.129458 0.541176 0.129458 1
0.129458 0.541176 0.129458 1
0.129458 0.541176 0.129458 1
0.129458 0.541176 0.129458 1
0.129458 0.541176 0.129458 1
0.129458 0.541176 0.129458 1
0.129458 0.541176 0.129458 1
0.129458 0.541176 0.129458 1
0.129458 0.541176 0.129458 1
0.129458 0.541176 0.129458 1
0.129458 0.541176 0.129458 1
0.129458 0.541176 0.129458 1
0.129458 0.541176 0.129458 1
0.129458 0.541176 0.129458 1
0.129458 0.541176 0.129458 1
0.129458 0.541176 0.129458 1
0.129458 0.541176 0.129458 1
0.129458 0.541176 0.129458 1
0.129458 0.541176 0.129458 1
0.129458 0.541176 0.129458 1
0.129458 0.541176 0.129458 1
0.129458 0.541176 0.129458 1
0.129458 0.541176 0.129458 1
0.129458 0.541176 0.129458 1
0.129458 0.541176 0.129458 1
0.129458 0.541176 0.129458 1
0.129458 0.541176 0.129458 1
0.129458 0.541176 0.129458 1
0.129458 0.541176 0.129458 1
0.129458 0.541176 0.129458 1
0.129458 0.541176 0.129458 1
0.129458 0.541176 0.129458 1
0.129458 0.541176 0.129458 1
0.129458 0.541176 0.129458 1
0.129458 0.541176 0.129458 1
0.129458 0.541176 0.129458 1
0.129458 0.541176 0.129458 1
0.129458 0.541176 0.129458 1
0.129458 0.541176 0.129458 1
0.129458 0.541176 0.129458 1
0.129458 0.541176 0.129458 1
0.129458 0.541176 0.129458 1
0.129458 0.541176 0.129458 1
0.129458 0.541176 0.129458 1
0.129458 0.541176 0.129458 1
0.129458 0.541176 0.129458 1
0.129458 0.541176 0.129458 1
0.129458 0.541176 0.129458 1
0.129458 0.541176 0.129458 1
0.129458 0.541176 0.129458 1
0.129458 0.541176 0.129458 1
0.129458 0.541176 0.129458 1
0.129458 0.541176 0.129458 1
0.129458 0.541176 0.129458 1
0.129458 0.541176 0.129458 1
0.129458 0.541176 0.129458 1
0.129458 0.541176 0.129458 1
0.129458 0.541176 0.129458 1
0.129458 0.541176 0.129458 1
0.129458 0.541176 0.129458 1
0.129458 0.541176 0.129458 1
0.129458 0.541176 0.129458 1
0.129458 0.541176 0.129458 1
0.129458 0.541176 0.129458 1
0.129458 0.541176 0.129458 1
0.129458 0.541176 0.129458 1
0.129458 0.541176 0.129458 1
0.129458 0.541176 0.129458 1
0.129458 0.541176 0.129458 1
0.129458 0.541176 0.129458 1
0.129458 0.541176 0.129458 1
0.129458 0.541176 0.129458 1
0.129458 0.541176 0.129458 1
0.129458 0.541176 0.129458 1
0.129458 0.541176 0.129458 1
0.129458 0.541176 0.129458 1
0.129458 0.541176 0.129458 1
0.129458 0.541176 0.129458 1
0.129458 0.541176 0.129458 1
0.129458 0.541176 0.129458 1
0.129458 0.541176 0.129458 1
0.129458 0.541176 0.129458 1
0.129458 0.541176 0.129458 1
0.129458 0.541176 0.129458 1
0.129458 0.541176 0.129458 1
0.129458 0.541176 0.129458 1
0.129458 0.541176 0.129458 1
0.129458 0.541176 0.129458 1
0.129458 0.541176 0.129458 1
0.129458 0.541176 0.129458 1
0.129458 0.541176 0.129458 1
0.129458 0.541176 0.129458 1
0.129458 0.541176 0.129458 1
0.129458 0.541176 0.129458 1
0.129458 0.541176 0.129458 1
0.129458 0.541176 0.129458 1
0.129458 0.541176 0.129458 1
0.129458 0.541176 0.129458 1
0.129458 0.541176 0.129458 1
0.129458 0.541176 0.129458 1
0.129458 0.541176 0.129458 1
0.129458 0.541176 0.129458 1
0.129458 0.541176 0.129458 1
0.129458 0.541176 0.129458 1
0.129458 0.541176 0.129458 1
0.129458 0.541176 0.129458 1
0.129458 0.541176 0.129458 1
0.129458 0.541176 0.129458 1
0.129458 0.541176 0.129458 1
0.129458 0.541176 0.129458 1
0.129458 0.541176 0.129458 1
0.129458 0.541176 0.129458 1
0.129458 0.541176 0.129458 1
0.129458 0.541176 0.129458 1
0.129458 0.541176 0.129458 1
0.129458 0.541176 0.129458 1
0.129458 0.541176 0.129458 1
0.129458 0.541176 0.129458 1
0.129458 0.541176 0.129458 1
0.129458 0.541176 0.129458 1
0.129458 0.541176 0.129458 1
0.129458 0.541176 0.129458 1
0.129458 0.541176 0.129458 1
0.129458 0.541176 0.129458 1
0.129458 0.541176 0.129458 1
0.129458 0.541176 0.129458 1
0.129458 0.541176 0.129458 1
0.129458 0.541176 0.129458 1
0.129458 0.541176 0.129458 1
0.129458 0.541176 0.129458 1
0.129458 0.541176 0.129458 1
0.129458 0.541176 0.129458 1
0.129458 0.541176 0.129458 1
0.129458 0.541176 0.129458 1
0.129458 0.541176 0.129458 1
0.129458 0.541176 0.129458 1
0.129458 0.541176 0.129458 1
0.129458 0.541176 0.129458 1
0.129458 0.541176 0.129458 1
0.129458 0.541176 0.129458 1
0.129458 0.541176 0.129458 1
0.129458 0.541176 0.129458 1
0.129458 0.541176 0.129458 1
0.129458 0.541176 0.129458 1
0.129458 0.541176 0.129458 1
0.129458 0.541176 0.129458 1
0.129458 0.541176 0.129458 1
0.129458 0.541176 0.129458 1
0.129458 0.541176 0.129458 1
0.129458 0.541176 0.129458 1
0.129458 0.541176 0.129458 1
0.129458 0.541176 0.129458 1
0.129458 0.541176 0.129458 1
0.129458 0.541176 0.129458 1
0.129458 0.541176 0.129458 1
0.129458 0.541176 0.129458 1
0.129458 0.541176 0.129458 1
0.129458 0.541176 0.129458 1
0.129458 0.541176 0.129458 1
0.129458 0.541176 0.129458 1
0.129458 0.541176 0.129458 1
0.129458 0.541176 0.129458 1
0.129458 0.541176 0.129458 1
0.129458 0.541176 0.129458 1
0.129458 0.541176 0.129458 1
0.129458 0.541176 0.129458 1
0.129458 0.541176 0.129458 1
0.129458 0.541176 0.129458 1
0.129458 0.541176 0.129458 1
0.129458 0.541176 0.129458 1
0.129458 0.541176 0.129458 1
0.129458 0.541176 0.129458 1
0.129458 0.541176 0.129458 1
0.129458 0.541176 0.129458 1
0.129458 0.541176 0.129458 1
0.129458 0.541176 0.129458 1
0.129458 0.541176 0.129458 1
0.129458 0.541176 0.129458 1
0.129458 0.541176 0.129458 1
0.129458 0.541176 0.129458 1
0.129458 0.541176 0.129458 1
0.129458 0.541176 0.129458 1
0.129458 0.541176 0.129458 1
0.129458 0.541176 0.129458 1
0.129458 0.541176 0.129458 1
0.129458 0.541176 0.129458 1
0.129458 0.541176 0.129458 1
0.129458 0.541176 0.129458 1
0.129458 0.541176 0.129458 1
0.129458 0.541176 0.129458 1
0.129458 0.541176 0.129458 1
0.129458 0.541176 0.129458 1
0.129458 0.541176 0.129458 1
0.129458 0.541176 0.129458 1
0.129458 0.541176 0.129458 1
0.129458 0.541176 0.129458 1
0.129458 0.541176 0.129458 1
0.129458 0.541176 0.129458 1
0.129458 0.541176 0.129458 1
0.129458 0.541176 0.129458 1
0.129458 0.541176 0.129458 1
0.129458 0.541176 0.129458 1
0.129458 0.541176 0.129458 1
0.129458 0.541176 0.129458 1
0.129458 0.541176 0.129458 1
0.129458 0.541176 0.129458 1
0.129458 0.541176 0.129458 1
0.129458 0.541176 0.129458 1
0.129458 0.541176 0.129458 1
0.129458 0.541176 0.129458 1
0.129458 0.541176 0.129458 1
0.129458 0.541176 0.129458 1
0.129458 0.541176 0.129458 1
0.129458 0.541176 0.129458 1
0.129458 0.541176 0.129458 1
0.129458 0.541176 0.129458 1
0.129458 0.541176 0.129458 1
0.129458 0.541176 0.129458 1
0.129458 0.541176 0.129458 1
0.129458 0.541176 0.129458 1
0.129458 0.541176 0.129458 1
0.129458 0.541176 0.129458 1
0.129458 0.541176 0.129458 1
0.129458 0.541176 0.129458 1
0.129458 0.541176 0.129458 1
0.129458 0.541176 0.129458 1
0.129458 0.541176 0.129458 1
0.129458 0.541176 0.129458 1
0.129458 0.541176 0.129458 1
0.129458 0.541176 0.129458 1
0.129458 0.541176 0.129458 1
0.129458 0.541176 0.129458 1
0.129458 0.541176 0.129458 1
0.129458 0.541176 0.129458 1
0.129458 0.541176 0.129458 1
0.129458 0.541176 0.129458 1
0.129458 0.541176 0.129458 1
0.129458 0.541176 0.129458 1
0.129458 0.541176 0.129458 1
0.129458 0.541176 0.129458 1
0.129458 0.541176 0.129458 1
0.129458 0.541176 0.129458 1
0.129458 0.541176 0.129458 1
0.129458 0.541176 0.129458 1
0.129458 0.541176 0.129458 1
0.129458 0.541176 0.129458 1
0.129458 0.541176 0.129458 1
0.129458 0.541176 0.129458 1
0.129458 0.541176 0.129458 1
0.129458 0.541176 0.129458 1
0.129458 0.541176 0.129458 1
0.129458 0.541176 0.129458 1
0.129458 0.541176 0.129458 1
0.129458 0.541176 0.129458 1
0.129458 0.541176 0.129458 1
0.129458 0.541176 0.129458 1
0.129458 0.541176 0.129458 1
0.129458 0.541176 0.129458 1
0.129458 0.541176 0.129458 1
0.129458 0.541176 0.129458 1
0.129458 0.541176 0.129458 1
0.129458 0.541176 0.129458 1
0.129458 0.541176 0.129458 1
0.129458 0.541176 0.129458 1
0.129458 0.541176 0.129458 1
0.129458 0.541176 0.129458 1
0.129458 0.541176 0.129458 1
0.129458 0.541176 0.129458 1
0.129458 0.541176 0.129458 1
0.129458 0.541176 0.129458 1
0.129458 0.541176 0.129458 1
0.129458 0.541176 0.129458 1
0.129458 0.541176 0.129458 1
0.129458 0.541176 0.129458 1
0.129458 0.541176 0.129458 1
0.129458 0.541176 0.129458 1
0.129458 0.541176 0.129458 1
0.129458 0.541176 0.129458 1
0.129458 0.541176 0.129458 1
0.129458 0.541176 0.129458 1
0.129458 0.541176 0.129458 1
0.129458 0.541176 0.129458 1
0.129458 0.541176 0.129458 1
0.129458 0.541176 0.129458 1
0.129458 0.541176 0.129458 1
0.129458 0.541176 0.129458 1
0.129458 0.541176 0.129458 1
0.129458 0.541176 0.129458 1
0.129458 0.541176 0.129458 1
0.129458 0.541176 0.129458 1
0.129458 0.541176 0.129458 1
0.129458 0.541176 0.129458 1
0.129458 0.541176 0.129458 1
0.129458 0.541176 0.129458 1
0.129458 0.541176 0.129458 1
0.129458 0.541176 0.129458 1
0.129458 0.541176 0.129458 1
0.129458 0.541176 0.129458 1
0.129458 0.541176 0.129458 1
0.129458 0.541176 0.129458 1
0.129458 0.541176 0.129458 1
0.129458 0.541176 0.129458 1
0.129458 0.541176 0.129458 1
0.129458 0.541176 0.129458 1
0.129458 0.541176 0.129458 1
0.129458 0.541176 0.129458 1
0.129458 0.541176 0.129458 1
0.129458 0.541176 0.129458 1
0.129458 0.541176 0.129458 1
0.129458 0.541176 0.129458 1
0.129458 0.541176 0.129458 1
0.129458 0.541176 0.129458 1
0.129458 0.541176 0.129458 1
0.129458 0.541176 0.129458 1
0.129458 0.541176 0.129458 1
0.129458 0.541176 0.129458 1
0.129458 0.541176 0.129458 1
0.129458 0.541176 0.129458 1
0.129458 0.541176 0.129458 1
0.129458 0.541176 0.129458 1
0.129458 0.541176 0.129458 1
0.129458 0.541176 0.129458 1
0.129458 0.541176 0.129458 1
0.129458 0.541176 0.129458 1
0.129458 0.541176 0.129458 1
0.129458 0.541176 0.129458 1
0.129458 0.541176 0.129458 1
0.129458 0.541176 0.129458 1
0.129458 0.541176 0.129458 1
0.129458 0.541176 0.129458 1
0.129458 0.541176 0.129458 1
0.129458 0.541176 0.129458 1
0.129458 0.541176 0.129458 1
0.129458 0.541176 0.129458 1
0.129458 0.541176 0.129458 1
0.129458 0.541176 0.129458 1
0.129458 0.541176 0.129458 1
0.129458 0.541176 0.129458 1
0.129458 0.541176 0.129458 1
0.129458 0.541176 0.129458 1
0.129458 0.541176 0.129458 1
0.129458 0.541176 0.129458 1
0.129458 0.541176 0.129458 1
0.129458 0.541176 0.129458 1
0.129458 0.541176 0.129458 1
0.129458 0.541176 0.129458 1
0.129458 0.541176 0.129458 1
0.129458 0.541176 0.129458 1
0.129458 0.541176 0.129458 1
0.129458 0.541176 0.129458 1
0.129458 0.541176 0.129458 1
0.129458 0.541176 0.129458 1
0.129458 0.541176 0.129458 1
0.129458 0.541176 0.129458 1
0.129458 0.541176 0.129458 1
0.129458 0.541176 0.129458 1
0.129458 0.541176 0.129458 1
0.129458 0.541176 0.129458 1
0.129458 0.541176 0.129458 1
0.129458 0.541176 0.129458 1
0.129458 0.541176 0.129458 1
0.129458 0.541176 0.129458 1
0.129458 0.541176 0.129458 1
0.129458 0.541176 0.129458 1
0.129458 0.541176 0.129458 1
0.129458 0.541176 0.129458 1
0.129458 0.541176 0.129458 1
0.129458 0.541176 0.129458 1
0.129458 0.541176 0.129458 1
0.129458 0.541176 0.129458 1
0.129458 0.541176 0.129458 1
0.129458 0.541176 0.129458 1
0.129458 0.541176 0.129458 1
0.129458 0.541176 0.129458 1
0.129458 0.541176 0.129458 1
0.129458 0.541176 0.129458 1
0.129458 0.541176 0.129458 1
0.129458 0.541176 0.129458 1
0.129458 0.541176 0.129458 1
0.129458 0.541176 0.129458 1
0.129458 0.541176 0.129458 1
0.129458 0.541176 0.129458 1
0.129458 0.541176 0.129458 1
0.129458 0.541176 0.129458 1
0.129458 0.541176 0.129458 1
0.129458 0.541176 0.129458 1
0.129458 0.541176 0.129458 1
0.129458 0.541176 0.129458 1
0.129458 0.541176 0.129458 1
0.129458 0.541176 0.129458 1
0.129458 0.541176 0.129458 1
0.129458 0.541176 0.129458 1
0.129458 0.541176 0.129458 1
0.129458 0.541176 0.129458 1
0.129458 0.541176 0.129458 1
0.129458 0.541176 0.129458 1
0.129458 0.541176 0.129458 1
0.129458 0.541176 0.129458 1
0.129458 0.541176 0.129458 1
0.129458 0.541176 0.129458 1
0.129458 0.541176 0.129458 1
0.129458 0.541176 0.129458 1
0.129458 0.541176 0.129458 1
0.129458 0.541176 0.129458 1
0.129458 0.541176 0.129458 1
0.129458 0.541176 0.129458 1
0.129458 0.541176 0.129458 1
0.129458 0.541176 0.129458 1
0.129458 0.541176 0.129458 1
0.129458 0.541176 0.129458 1
0.129458 0.541176 0.129458 1
0.129458 0.541176 0.129458 1
0.129458 0.541176 0.129458 1
0.129458 0.541176 0.129458 1
0.129458 0.541176 0.129458 1
0.129458 0.541176 0.129458 1
0.129458 0.541176 0.129458 1
0.129458 0.541176 0.129458 1
0.129458 0.541176 0.129458 1
0.129458 0.541176 0.129458 1
0.129458 0.541176 0.129458 1
0.129458 0.541176 0.129458 1
0.129458 0.541176 0.129458 1
0.129458 0.541176 0.129458 1
0.129458 0.541176 0.129458 1
0.129458 0.541176 0.129458 1
0.129458 0.541176 0.129458 1
0.129458 0.541176 0.129458 1
0.129458 0.541176 0.129458 1
0.129458 0.541176 0.129458 1
0.129458 0.541176 0.129458 1
0.129458 0.541176 0.129458 1
0.129458 0.541176 0.129458 1
0.129458 0.541176 0.129458 1
0.129458 0.541176 0.129458 1
0.129458 0.541176 0.129458 1
0.129458 0.541176 0.129458 1
0.129458 0.541176 0.129458 1
0.129458 0.541176 0.129458 1
0.129458 0.541176 0.129458 1
0.129458 0.541176 0.129458 1
0.129458 0.541176 0.129458 1
0.129458 0.541176 0.129458 1
0.129458 0.541176 0.129458 1
0.129458 0.541176 0.129458 1
0.129458 0.541176 0.129458 1
0.129458 0.541176 0.129458 1
0.129458 0.541176 0.129458 1
0.129458 0.541176 0.129458 1
0.129458 0.541176 0.129458 1
0.129458 0.541176 0.129458 1
0.129458 0.541176 0.129458 1
0.129458 0.541176 0.129458 1
0.129458 0.541176 0.129458 1
0.129458 0.541176 0.129458 1
0.129458 0.541176 0.129458 1
0.129458 0.541176 0.129458 1
0.129458 0.541176 0.129458 1
0.129458 0.541176 0.129458 1
0.129458 0.541176 0.129458 1
0.129458 0.541176 0.129458 1
0.129458 0.541176 0.129458 1
0.129458 0.541176 0.129458 1
0.129458 0.541176 0.129458 1
0.129458 0.541176 0.129458 1
0.129458 0.541176 0.129458 1
0.129458 0.541176 0.129458 1
0.129458 0.541176 0.129458 1
0.129458 0.541176 0.129458 1
0.129458 0.541176 0.129458 1
0.129458 0.541176 0.129458 1
0.129458 0.541176 0.129458 1
0.129458 0.541176 0.129458 1
0.129458 0.541176 0.129458 1
0.129458 0.541176 0.129458 1
0.129458 0.541176 0.129458 1
0.129458 0.541176 0.129458 1
0.129458 0.541176 0.129458 1
0.129458 0.541176 0.129458 1
0.129458 0.541176 0.129458 1
0.129458 0.541176 0.129458 1
0.129458 0.541176 0.129458 1
0.129458 0.541176 0.129458 1
0.129458 0.541176 0.129458 1
0.129458 0.541176 0.129458 1
0.129458 0.541176 0.129458 1
0.129458 0.541176 0.129458 1