# vtk DataFile Version 3.0
Gocad TSurf to VTK
ASCII
DATASET POLYDATA
POINTS 348 float
21571950.000 4562680.000 35.000
21571775.000 4562540.000 157.500
21571975.000 4562290.000 -135.000
21571800.000 4562150.000 30.000
21572050.000 4562555.000 -90.000
21571725.000 4562632.500 338.750
21571768.297 4562713.020 359.097
21571600.000 4562400.000 280.000
21571833.484 4562810.063 363.014
21571857.578 4562850.988 370.043
21572175.000 4562757.500 -150.000
21571865.313 4562859.934 371.700
21571990.938 4563070.402 407.930
21572300.000 4562960.000 -210.000
21572325.000 4562570.000 -465.000
21571997.188 4563088.113 410.769
21572118.953 4563294.934 446.290
21572350.000 4563175.000 -15.000
21572700.000 4563035.000 -202.500
21572131.063 4563310.738 449.141
21572213.391 4563418.168 468.516
21572216.391 4563422.176 469.332
21572400.000 4563390.000 180.000
21572231.688 4563442.598 473.493
21572312.938 4563551.063 495.592
21572400.000 4563667.277 519.270
21572493.516 4563792.109 544.704
21573100.000 4563110.000 -195.000
21572517.688 4563799.063 547.440
21572603.484 4563800.895 553.682
21572825.000 4563760.000 518.750
21573450.000 4563345.000 85.000
21572620.984 4563862.063 564.176
21572683.469 4563929.836 570.644
21572723.516 4563973.266 574.790
21572850.000 4564060.000 577.500
21573150.000 4563700.000 467.500
21573025.000 4564180.000 581.250
21573475.000 4563640.000 416.250
21573625.000 4563462.500 225.000
21573200.000 4564300.000 585.000
21573925.000 4563667.500 350.000
21573800.000 4564110.000 440.000
21574175.000 4563842.500 320.000
21573350.000 4564385.000 567.500
21573500.000 4564470.000 550.000
21573800.000 4564375.000 477.500
21573650.000 4564555.000 532.500
21573800.000 4564640.000 515.000
21574450.000 4564012.500 322.500
21574400.000 4564395.000 452.500
21574750.000 4564177.500 357.500
21573975.000 4564695.000 536.250
21574150.000 4564750.000 557.500
21574450.000 4564627.500 526.250
21574325.000 4564805.000 578.750
21574456.828 4564846.434 594.758
21574496.938 4564845.734 595.475
21575050.000 4564320.000 302.500
21574507.703 4564852.438 595.833
21574513.609 4564854.555 595.993
21574950.000 4564680.000 467.500
21575500.000 4564500.000 85.000
21574537.547 4564878.023 596.996
21574625.000 4564920.000 590.000
21574750.000 4564980.000 580.000
21574750.000 4564985.000 580.000
21574975.000 4564890.000 513.750
21574875.000 4565040.000 570.000
21574875.000 4565047.500 570.000
21575000.000 4565110.000 560.000
21575200.000 4565147.500 557.500
21575200.000 4565155.000 557.500
21575400.000 4565200.000 555.000
21575600.000 4565242.500 552.500
21575725.000 4565092.500 433.750
21575600.000 4565245.000 552.500
21575800.000 4565290.000 550.000
21576100.000 4564900.000 270.000
21575950.000 4564800.000 223.750
21576000.000 4565310.000 531.250
21576225.000 4565017.500 321.250
21576550.000 4564667.500 70.000
21576200.000 4565330.000 512.500
21576350.000 4565135.000 372.500
21576500.000 4564975.000 267.500
21576400.000 4565350.000 493.750
21576475.000 4565252.500 423.750
21576550.000 4565172.500 371.250
21576600.000 4565370.000 475.000
21577000.000 4564920.000 100.000
21576850.000 4564842.500 90.000
21576800.000 4565417.500 461.250
21577100.000 4565087.500 180.000
21577250.000 4564885.000 48.750
21577000.000 4565465.000 447.500
21577200.000 4565512.500 433.750
21577400.000 4565560.000 420.000
21577700.000 4565170.000 -15.000
21577550.000 4565070.000 6.250
21577600.000 4565015.000 82.500
21577450.000 4564930.000 55.000
21577750.000 4564802.500 -72.500
21577600.000 4564705.000 105.000
21577900.000 4564900.000 -250.000
21577900.000 4564607.500 -177.500
21577700.000 4564575.000 35.000
21578100.000 4564640.000 -390.000
21577975.000 4564517.500 -207.500
21577750.000 4564515.000 15.000
21578200.000 4564520.000 -430.000
21577525.000 4564512.500 237.500
21577400.000 4564675.000 341.250
21577300.000 4564510.000 460.000
21577500.000 4564860.000 180.000
21577325.000 4564810.000 90.000
21577200.000 4564690.000 125.000
21577100.000 4564770.000 70.000
21577300.000 4564550.000 375.000
21577150.000 4564470.000 327.500
21577075.000 4564575.000 140.000
21577175.000 4564397.500 453.750
21577050.000 4564305.000 405.000
21577000.000 4564390.000 280.000
21577050.000 4564285.000 447.500
21576925.000 4564182.500 420.000
21576925.000 4564172.500 441.250
21576800.000 4564060.000 435.000
21576700.000 4564230.000 185.000
21576600.000 4564057.500 208.750
21576600.000 4564350.000 30.000
21576675.000 4563930.000 396.250
21576675.000 4563920.000 423.750
21576500.000 4563885.000 232.500
21576450.000 4563945.000 65.000
21576550.000 4563800.000 357.500
21576400.000 4563712.500 256.250
21576325.000 4563802.500 5.000
21576550.000 4563780.000 412.500
21576425.000 4563640.000 401.250
21576300.000 4563500.000 390.000
21576150.000 4563487.500 245.000
21576200.000 4563660.000 -55.000
21576200.000 4563392.500 362.500
21576100.000 4563285.000 335.000
21576200.000 4563382.500 372.500
21576100.000 4563265.000 355.000
21576000.000 4563177.500 307.500
21576050.000 4563355.000 230.000
21576000.000 4563147.500 337.500
21575900.000 4563070.000 280.000
21575925.000 4563262.500 205.000
21575900.000 4563030.000 320.000
21575775.000 4562907.500 282.500
21575675.000 4563052.500 142.500
21575800.000 4562882.500 313.750
21575700.000 4562735.000 307.500
21575650.000 4562805.000 225.000
21575600.000 4562587.500 301.250
21575525.000 4562672.500 197.500
21575425.000 4562817.500 67.500
21575500.000 4562440.000 295.000
21575400.000 4562540.000 170.000
21575300.000 4562700.000 30.000
21575275.000 4562402.500 197.500
21575225.000 4562490.000 170.000
21575350.000 4562327.500 291.250
21575150.000 4562265.000 225.000
21575100.000 4562350.000 197.500
21575200.000 4562215.000 287.500
21575025.000 4562127.500 252.500
21574950.000 4562262.500 211.250
21575050.000 4562102.500 283.750
21574900.000 4561990.000 280.000
21574800.000 4562160.000 210.000
21574625.000 4562047.500 161.250
21574850.000 4562430.000 135.000
21574700.000 4562350.000 170.000
21575050.000 4562440.000 170.000
21575000.000 4562525.000 100.000
21575150.000 4562612.500 65.000
21574900.000 4562645.000 100.000
21574950.000 4562862.500 65.000
21574650.000 4562707.500 135.000
21574500.000 4562630.000 170.000
21574575.000 4563300.000 161.250
21575250.000 4563037.500 57.500
21574325.000 4563080.000 173.750
21574475.000 4563452.500 207.500
21574050.000 4562820.000 -32.500
21574325.000 4562515.000 -26.250
21574000.000 4562570.000 -217.500
21574400.000 4562392.500 120.000
21574300.000 4562155.000 70.000
21574550.000 4562182.500 120.000
21574400.000 4562015.000 70.000
21574550.000 4561820.000 230.000
21574425.000 4561642.500 228.750
21574750.000 4561860.000 268.750
21574600.000 4561730.000 257.500
21574450.000 4561600.000 246.250
21574300.000 4561470.000 235.000
21574275.000 4561802.500 33.750
21574100.000 4561680.000 -30.000
21574125.000 4561412.500 232.500
21574200.000 4561917.500 20.000
21573900.000 4562040.000 -460.000
21574200.000 4562335.000 -145.000
21573925.000 4561652.500 -106.250
21573775.000 4561922.500 -428.750
21573975.000 4561570.000 33.750
21573850.000 4561460.000 97.500
21573950.000 4561355.000 230.000
21573775.000 4561297.500 227.500
21573600.000 4561240.000 225.000
21573400.000 4561570.000 -335.000
21573100.000 4561205.000 -215.000
21572950.000 4561365.000 -377.500
21573400.000 4561140.000 145.000
21573200.000 4561040.000 65.000
21573450.000 4561057.500 231.250
21573300.000 4560875.000 237.500
21573075.000 4560820.000 97.500
21573000.000 4560940.000 -15.000
21573150.000 4560692.500 243.750
21572900.000 4560680.000 55.000
21572900.000 4560690.000 55.000
21573000.000 4560510.000 250.000
21572800.000 4560840.000 -95.000
21572950.000 4561022.500 -155.000
21572725.000 4561262.500 -398.750
21572675.000 4561385.000 -552.500
21572850.000 4561520.000 -605.000
21572500.000 4561250.000 -500.000
21572475.000 4561590.000 -630.000
21572500.000 4561160.000 -420.000
21572750.000 4561605.000 -605.000
21572300.000 4561420.000 -500.000
21572200.000 4561530.000 -460.000
21572300.000 4561790.000 -553.750
21572500.000 4561960.000 -717.500
21572000.000 4561840.000 -265.000
21572150.000 4562022.500 -407.500
21572250.000 4562275.000 -447.500
21572450.000 4562387.500 -692.500
21572150.000 4562430.000 -300.000
21572650.000 4562810.000 -521.250
21572600.000 4562570.000 -835.000
21572800.000 4562910.000 -412.500
21572900.000 4562765.000 -565.000
21573125.000 4562757.500 -583.750
21572775.000 4562632.500 -751.250
21572950.000 4562695.000 -667.500
21572950.000 4562445.000 -895.000
21573050.000 4562605.000 -737.500
21573250.000 4562555.000 -735.000
21573500.000 4562510.000 -670.000
21573100.000 4562445.000 -822.500
21573250.000 4562305.000 -845.000
21573375.000 4562405.000 -757.500
21573125.000 4562195.000 -932.500
21573300.000 4562230.000 -795.000
21573225.000 4562057.500 -857.500
21573475.000 4562272.500 -732.500
21573600.000 4562380.000 -670.000
21573400.000 4562080.000 -690.000
21573500.000 4561980.000 -662.500
21573650.000 4562075.000 -638.750
21573350.000 4561885.000 -686.250
21573600.000 4561870.000 -475.000
21573500.000 4561720.000 -405.000
21573700.000 4562020.000 -545.000
21573800.000 4562170.000 -615.000
21573900.000 4562370.000 -416.250
21573600.000 4562700.000 -446.250
21573750.000 4562895.000 -160.000
21573300.000 4562820.000 -500.000
21573525.000 4562857.500 -330.000
21573375.000 4563075.000 -101.250
21573650.000 4563040.000 -7.500
21573025.000 4561655.000 -657.500
21572825.000 4561922.500 -890.000
21573100.000 4561950.000 -920.000
21572650.000 4561765.000 -760.000
21572650.000 4562175.000 -846.250
21572800.000 4562390.000 -975.000
21573000.000 4562110.000 -1020.000
21574250.000 4563495.000 260.000
21574750.000 4563622.500 210.000
21574800.000 4563835.000 265.000
21574900.000 4563447.500 161.250
21575000.000 4563605.000 182.500
21575150.000 4563702.500 196.250
21575300.000 4563800.000 210.000
21575300.000 4563522.500 173.750
21575500.000 4563560.000 180.000
21575550.000 4563722.500 103.750
21575400.000 4563405.000 142.500
21575300.000 4563250.000 105.000
21575700.000 4563330.000 140.000
21575825.000 4563412.500 91.250
21575550.000 4563232.500 112.500
21575450.000 4563055.000 105.000
21575800.000 4563170.000 180.000
21575850.000 4563382.500 175.000
21575950.000 4563495.000 42.500
21575850.000 4563600.000 -55.000
21576000.000 4563435.000 210.000
21576075.000 4563577.500 -6.250
21576000.000 4563660.000 -111.250
21576100.000 4563770.000 -195.000
21575875.000 4563792.500 -142.500
21575750.000 4563755.000 -35.000
21575800.000 4563912.500 -112.500
21575625.000 4563640.000 72.500
21575600.000 4563885.000 27.500
21575400.000 4563902.500 126.250
21575500.000 4564005.000 42.500
21575400.000 4564145.000 147.500
21575600.000 4564107.500 -41.250
21575450.000 4564317.500 116.250
21575700.000 4564210.000 -125.000
21575650.000 4564600.000 131.250
21575800.000 4564382.500 -26.250
21575800.000 4564695.000 177.500
21575900.000 4564555.000 72.500
21576000.000 4564727.500 171.250
21576225.000 4564487.500 13.750
21576050.000 4564360.000 -60.000
21576400.000 4564580.000 60.000
21576300.000 4564370.000 -58.750
21576500.000 4564450.000 5.000
21576200.000 4564230.000 -122.500
21576300.000 4564150.000 -110.000
21576025.000 4564150.000 -156.250
21576150.000 4564002.500 -180.000
21575875.000 4564302.500 -78.750
21575900.000 4564030.000 -210.000
21576000.000 4563950.000 -250.000
21576225.000 4563912.500 -138.750
21576450.000 4564242.500 -40.000
21576650.000 4564535.000 21.250
21576725.000 4564447.500 40.000
21576700.000 4564715.000 52.500
21576850.000 4564555.000 50.000
21576900.000 4564500.000 127.500
21576975.000 4564672.500 60.000
21575550.000 4562935.000 105.000

POLYGONS 593 2372
3 36 30 31
3 70 69 67
3 296 293 295
3 113 111 112
3 264 272 273
3 33 32 30
3 223 226 222
3 121 113 119
3 136 135 133
3 171 178 176
3 283 240 234
3 138 135 136
3 66 68 69
3 59 57 58
3 308 309 306
3 277 278 276
3 142 141 136
3 29 27 30
3 327 326 325
3 1 3 2
3 221 220 219
3 339 137 333
3 120 346 345
3 20 19 17
3 196 195 197
3 187 184 183
3 171 170 167
3 194 177 192
3 323 325 322
3 327 329 326
3 165 162 163
3 61 58 62
3 9 0 10
3 195 202 197
3 269 268 270
3 337 321 319
3 103 102 100
3 168 171 167
3 255 254 257
3 316 317 318
3 307 141 308
3 290 185 186
3 233 230 231
3 12 10 13
3 83 81 84
3 2 3 241
3 306 309 311
3 142 136 137
3 32 29 30
3 103 112 111
3 115 116 112
3 124 125 126
3 257 258 255
3 181 180 182
3 39 38 31
3 269 270 209
3 41 39 189
3 129 134 133
3 200 199 197
3 255 258 259
3 230 229 217
3 145 144 146
3 314 306 312
3 168 167 164
3 258 257 260
3 281 282 286
3 151 150 147
3 50 48 49
3 145 140 143
3 341 344 343
3 111 109 106
3 202 203 201
3 56 55 54
3 91 82 343
3 74 73 71
3 62 320 322
3 293 318 58
3 196 175 195
3 61 64 63
3 214 215 216
3 123 120 345
3 215 270 280
3 150 303 154
3 295 299 300
3 263 264 259
3 271 267 266
3 170 169 167
3 272 206 273
3 38 36 31
3 193 192 190
3 178 180 179
3 330 332 333
3 269 266 268
3 149 147 150
3 1 7 3
3 306 311 312
3 160 163 159
3 328 334 332
3 329 78 326
3 231 236 234
3 167 166 164
3 330 331 329
3 60 58 61
3 57 54 58
3 305 308 306
3 67 61 62
3 114 101 115
3 18 17 13
3 303 299 154
3 166 161 164
3 325 323 328
3 224 222 225
3 168 164 165
3 309 310 311
3 148 144 141
3 344 342 345
3 320 62 58
3 285 247 244
3 183 184 176
3 289 49 288
3 244 247 246
3 117 116 94
3 190 184 189
3 315 313 319
3 144 143 141
3 21 20 17
3 33 30 34
3 291 292 289
3 124 122 125
3 44 40 42
3 339 310 142
3 46 48 47
3 54 51 58
3 276 250 256
3 317 319 318
3 327 328 332
3 23 21 22
3 294 292 290
3 73 74 76
3 262 265 261
3 81 78 82
3 11 9 10
3 266 267 263
3 163 160 186
3 30 35 34
3 269 209 271
3 30 36 35
3 85 81 82
3 337 338 335
3 297 294 298
3 313 312 311
3 293 316 318
3 313 337 319
3 91 88 85
3 247 251 246
3 17 18 22
3 195 175 194
3 238 237 234
3 329 331 82
3 310 335 338
3 294 295 293
3 281 283 236
3 38 40 37
3 99 98 93
3 9 8 0
3 186 298 290
3 112 118 113
3 178 165 180
3 314 295 300
3 267 264 263
3 301 302 154
3 205 207 206
3 242 239 240
3 91 85 82
3 70 71 72
3 267 272 264
3 74 77 76
3 106 102 103
3 202 201 197
3 182 186 185
3 42 40 41
3 8 6 0
3 254 252 253
3 239 238 234
3 326 78 79
3 108 107 105
3 274 276 256
3 270 268 280
3 339 142 137
3 248 249 250
3 127 125 128
3 335 339 333
3 284 244 240
3 288 291 289
3 93 90 94
3 296 316 293
3 236 280 281
3 62 71 67
3 203 205 206
3 75 71 322
3 102 104 98
3 343 344 91
3 148 307 151
3 251 285 253
3 265 263 261
3 4 0 2
3 116 118 112
3 80 81 83
3 317 315 319
3 245 2 242
3 50 53 52
3 60 61 63
3 125 123 128
3 177 194 174
3 120 117 346
3 159 158 157
3 309 142 310
3 204 201 203
3 172 170 173
3 264 256 259
3 155 152 153
3 331 130 341
3 134 129 340
3 39 279 189
3 25 24 22
3 114 103 100
3 304 305 300
3 95 92 93
3 222 226 225
3 319 321 320
3 0 4 10
3 132 135 138
3 345 342 128
3 344 346 91
3 265 266 263
3 120 116 117
3 212 210 211
3 256 264 273
3 60 59 58
3 298 186 302
3 129 131 127
3 101 100 99
3 49 289 51
3 22 18 27
3 129 128 130
3 172 169 170
3 88 91 90
3 260 262 261
3 245 10 4
3 243 245 242
3 250 255 256
3 251 247 285
3 244 14 243
3 67 65 61
3 127 128 129
3 304 307 305
3 71 62 322
3 19 16 17
3 178 171 168
3 137 134 333
3 224 225 227
3 212 204 210
3 251 249 246
3 262 282 268
3 276 27 248
3 185 188 187
3 75 74 71
3 244 243 240
3 315 296 312
3 340 330 333
3 282 260 286
3 219 218 216
3 260 282 262
3 279 39 31
3 213 212 211
3 250 276 248
3 268 282 280
3 205 203 202
3 290 288 185
3 236 232 280
3 323 336 328
3 125 127 126
3 61 65 64
3 268 266 265
3 86 84 87
3 321 337 336
3 347 160 157
3 154 157 153
3 165 178 168
3 321 336 323
3 248 18 13
3 176 177 174
3 141 140 136
3 297 295 294
3 200 197 201
3 84 85 88
3 106 105 102
3 188 185 288
3 287 188 43
3 105 104 102
3 218 214 216
3 230 217 231
3 277 274 275
3 289 292 51
3 341 130 342
3 249 252 250
3 190 191 207
3 278 27 276
3 306 314 300
3 221 222 224
3 102 98 100
3 170 171 174
3 94 101 99
3 77 78 80
3 215 217 216
3 89 87 88
3 42 43 46
3 204 203 210
3 294 293 292
3 327 330 329
3 254 253 257
3 208 203 206
3 246 248 13
3 187 183 185
3 327 332 330
3 256 255 259
3 332 334 335
3 243 242 240
3 184 177 176
3 283 234 236
3 158 156 157
3 116 115 94
3 280 232 217
3 318 319 320
3 171 176 174
3 240 283 284
3 337 313 311
3 230 235 228
3 252 249 251
3 183 181 182
3 38 39 41
3 183 182 185
3 337 334 336
3 208 206 209
3 141 142 308
3 324 325 326
3 27 278 31
3 92 89 90
3 197 199 196
3 51 293 58
3 191 189 275
3 121 122 124
3 274 277 276
3 194 175 174
3 187 41 189
3 333 134 340
3 119 118 116
3 304 299 303
3 57 56 54
3 206 207 273
3 279 278 277
3 192 184 190
3 193 194 192
3 211 208 215
3 181 183 176
3 99 93 94
3 273 191 275
3 123 122 119
3 232 236 231
3 246 249 248
3 98 97 93
3 109 108 105
3 304 300 299
3 252 251 253
3 28 26 27
3 291 288 290
3 275 274 273
3 191 273 207
3 312 296 314
3 144 148 147
3 333 332 335
3 219 223 222
3 208 209 215
3 131 135 132
3 271 272 267
3 223 228 226
3 131 132 127
3 334 337 335
3 188 288 49
3 271 266 269
3 26 25 22
3 103 111 106
3 14 244 246
3 229 219 216
3 155 153 156
3 145 143 144
3 296 295 314
3 169 166 167
3 67 68 65
3 128 342 130
3 165 163 180
3 154 347 157
3 308 142 309
3 239 242 241
3 78 75 79
3 233 231 234
3 0 6 5
3 46 43 49
3 193 207 205
3 65 68 66
3 284 281 285
3 170 174 173
3 240 239 234
3 100 98 99
3 150 154 153
3 210 203 208
3 347 302 160
3 282 281 280
3 315 317 316
3 182 163 186
3 160 302 186
3 287 43 41
3 253 286 260
3 87 84 88
3 275 279 277
3 16 15 13
3 331 330 340
3 93 92 90
3 84 81 85
3 109 105 106
3 229 230 228
3 220 218 219
3 133 135 131
3 148 151 147
3 16 13 17
3 237 233 234
3 27 18 248
3 281 286 285
3 214 213 211
3 195 194 193
3 222 221 219
3 36 37 35
3 286 253 285
3 305 306 300
3 188 287 187
3 338 337 311
3 89 88 90
3 344 345 346
3 2 245 4
3 301 299 297
3 117 90 91
3 250 252 254
3 173 175 198
3 24 23 22
3 43 188 49
3 103 114 112
3 315 316 296
3 232 231 217
3 302 347 154
3 192 177 184
3 164 161 162
3 133 131 129
3 15 12 13
3 12 11 10
3 191 190 189
3 78 329 82
3 176 178 179
3 313 315 312
3 123 125 122
3 165 164 162
3 140 139 136
3 146 144 147
3 327 325 328
3 21 17 22
3 151 304 303
3 129 130 340
3 259 258 261
3 54 53 50
3 209 270 215
3 180 163 182
3 156 153 157
3 13 14 246
3 179 181 176
3 146 147 149
3 141 307 148
3 265 262 268
3 52 48 50
3 48 46 49
3 195 205 202
3 151 303 150
3 229 216 217
3 199 198 196
3 143 140 141
3 26 22 27
3 320 58 318
3 65 66 64
3 122 121 119
3 90 117 94
3 29 28 27
3 80 78 81
3 161 158 159
3 83 84 86
3 46 47 45
3 96 95 93
3 223 229 228
3 97 96 93
3 78 77 75
3 41 43 42
3 280 217 215
3 301 298 302
3 310 339 335
3 163 162 159
3 235 230 233
3 298 301 297
3 113 118 119
3 139 138 136
3 73 72 71
3 341 342 344
3 51 50 49
3 331 341 82
3 299 301 154
3 271 206 272
3 75 322 79
3 133 134 137
3 108 110 107
3 307 304 151
3 341 343 82
3 214 211 215
3 123 345 128
3 278 279 31
3 71 70 67
3 162 161 159
3 307 308 305
3 292 291 290
3 324 326 79
3 209 206 271
3 321 323 320
3 40 38 41
3 346 117 91
3 187 287 41
3 136 133 137
3 130 331 340
3 123 119 120
3 210 208 211
3 320 323 322
3 0 1 2
3 114 115 112
3 75 77 74
3 292 293 51
3 239 241 238
3 157 160 159
3 261 263 259
3 1 5 7
3 189 184 187
3 324 79 322
3 30 27 31
3 205 195 193
3 297 299 295
3 175 196 198
3 245 14 10
3 220 214 218
3 14 13 10
3 50 51 54
3 119 116 120
3 42 45 44
3 115 101 94
3 207 193 190
3 36 38 37
3 298 294 290
3 254 255 250
3 69 68 67
3 14 245 243
3 334 328 336
3 179 180 181
3 149 150 152
3 284 285 244
3 89 86 87
3 261 258 260
3 174 175 173
3 223 219 229
3 283 281 284
3 257 253 260
3 100 101 114
3 1 0 5
3 274 256 273
3 54 55 53
3 279 275 189
3 2 241 242
3 152 150 153
3 46 45 42
3 105 107 104
3 311 310 338
3 325 324 322

POINT_DATA 348
COLOR_SCALARS GocadColor 4
0 1 0.48333 1
0 1 0.48333 1
0 1 0.48333 1
0 1 0.48333 1
0 1 0.48333 1
0 1 0.48333 1
0 1 0.48333 1
0 1 0.48333 1
0 1 0.48333 1
0 1 0.48333 1
0 1 0.48333 1
0 1 0.48333 1
0 1 0.48333 1
0 1 0.48333 1
0 1 0.48333 1
0 1 0.48333 1
0 1 0.48333 1
0 1 0.48333 1
0 1 0.48333 1
0 1 0.48333 1
0 1 0.48333 1
0 1 0.48333 1
0 1 0.48333 1
0 1 0.48333 1
0 1 0.48333 1
0 1 0.48333 1
0 1 0.48333 1
0 1 0.48333 1
0 1 0.48333 1
0 1 0.48333 1
0 1 0.48333 1
0 1 0.48333 1
0 1 0.48333 1
0 1 0.48333 1
0 1 0.48333 1
0 1 0.48333 1
0 1 0.48333 1
0 1 0.48333 1
0 1 0.48333 1
0 1 0.48333 1
0 1 0.48333 1
0 1 0.48333 1
0 1 0.48333 1
0 1 0.48333 1
0 1 0.48333 1
0 1 0.48333 1
0 1 0.48333 1
0 1 0.48333 1
0 1 0.48333 1
0 1 0.48333 1
0 1 0.48333 1
0 1 0.48333 1
0 1 0.48333 1
0 1 0.48333 1
0 1 0.48333 1
0 1 0.48333 1
0 1 0.48333 1
0 1 0.48333 1
0 1 0.48333 1
0 1 0.48333 1
0 1 0.48333 1
0 1 0.48333 1
0 1 0.48333 1
0 1 0.48333 1
0 1 0.48333 1
0 1 0.48333 1
0 1 0.48333 1
0 1 0.48333 1
0 1 0.48333 1
0 1 0.48333 1
0 1 0.48333 1
0 1 0.48333 1
0 1 0.48333 1
0 1 0.48333 1
0 1 0.48333 1
0 1 0.48333 1
0 1 0.48333 1
0 1 0.48333 1
0 1 0.48333 1
0 1 0.48333 1
0 1 0.48333 1
0 1 0.48333 1
0 1 0.48333 1
0 1 0.48333 1
0 1 0.48333 1
0 1 0.48333 1
0 1 0.48333 1
0 1 0.48333 1
0 1 0.48333 1
0 1 0.48333 1
0 1 0.48333 1
0 1 0.48333 1
0 1 0.48333 1
0 1 0.48333 1
0 1 0.48333 1
0 1 0.48333 1
0 1 0.48333 1
0 1 0.48333 1
0 1 0.48333 1
0 1 0.48333 1
0 1 0.48333 1
0 1 0.48333 1
0 1 0.48333 1
0 1 0.48333 1
0 1 0.48333 1
0 1 0.48333 1
0 1 0.48333 1
0 1 0.48333 1
0 1 0.48333 1
0 1 0.48333 1
0 1 0.48333 1
0 1 0.48333 1
0 1 0.48333 1
0 1 0.48333 1
0 1 0.48333 1
0 1 0.48333 1
0 1 0.48333 1
0 1 0.48333 1
0 1 0.48333 1
0 1 0.48333 1
0 1 0.48333 1
0 1 0.48333 1
0 1 0.48333 1
0 1 0.48333 1
0 1 0.48333 1
0 1 0.48333 1
0 1 0.48333 1
0 1 0.48333 1
0 1 0.48333 1
0 1 0.48333 1
0 1 0.48333 1
0 1 0.48333 1
0 1 0.48333 1
0 1 0.48333 1
0 1 0.48333 1
0 1 0.48333 1
0 1 0.48333 1
0 1 0.48333 1
0 1 0.48333 1
0 1 0.48333 1
0 1 0.48333 1
0 1 0.48333 1
0 1 0.48333 1
0 1 0.48333 1
0 1 0.48333 1
0 1 0.48333 1
0 1 0.48333 1
0 1 0.48333 1
0 1 0.48333 1
0 1 0.48333 1
0 1 0.48333 1
0 1 0.48333 1
0 1 0.48333 1
0 1 0.48333 1
0 1 0.48333 1
0 1 0.48333 1
0 1 0.48333 1
0 1 0.48333 1
0 1 0.48333 1
0 1 0.48333 1
0 1 0.48333 1
0 1 0.48333 1
0 1 0.48333 1
0 1 0.48333 1
0 1 0.48333 1
0 1 0.48333 1
0 1 0.48333 1
0 1 0.48333 1
0 1 0.48333 1
0 1 0.48333 1
0 1 0.48333 1
0 1 0.48333 1
0 1 0.48333 1
0 1 0.48333 1
0 1 0.48333 1
0 1 0.48333 1
0 1 0.48333 1
0 1 0.48333 1
0 1 0.48333 1
0 1 0.48333 1
0 1 0.48333 1
0 1 0.48333 1
0 1 0.48333 1
0 1 0.48333 1
0 1 0.48333 1
0 1 0.48333 1
0 1 0.48333 1
0 1 0.48333 1
0 1 0.48333 1
0 1 0.48333 1
0 1 0.48333 1
0 1 0.48333 1
0 1 0.48333 1
0 1 0.48333 1
0 1 0.48333 1
0 1 0.48333 1
0 1 0.48333 1
0 1 0.48333 1
0 1 0.48333 1
0 1 0.48333 1
0 1 0.48333 1
0 1 0.48333 1
0 1 0.48333 1
0 1 0.48333 1
0 1 0.48333 1
0 1 0.48333 1
0 1 0.48333 1
0 1 0.48333 1
0 1 0.48333 1
0 1 0.48333 1
0 1 0.48333 1
0 1 0.48333 1
0 1 0.48333 1
0 1 0.48333 1
0 1 0.48333 1
0 1 0.48333 1
0 1 0.48333 1
0 1 0.48333 1
0 1 0.48333 1
0 1 0.48333 1
0 1 0.48333 1
0 1 0.48333 1
0 1 0.48333 1
0 1 0.48333 1
0 1 0.48333 1
0 1 0.48333 1
0 1 0.48333 1
0 1 0.48333 1
0 1 0.48333 1
0 1 0.48333 1
0 1 0.48333 1
0 1 0.48333 1
0 1 0.48333 1
0 1 0.48333 1
0 1 0.48333 1
0 1 0.48333 1
0 1 0.48333 1
0 1 0.48333 1
0 1 0.48333 1
0 1 0.48333 1
0 1 0.48333 1
0 1 0.48333 1
0 1 0.48333 1
0 1 0.48333 1
0 1 0.48333 1
0 1 0.48333 1
0 1 0.48333 1
0 1 0.48333 1
0 1 0.48333 1
0 1 0.48333 1
0 1 0.48333 1
0 1 0.48333 1
0 1 0.48333 1
0 1 0.48333 1
0 1 0.48333 1
0 1 0.48333 1
0 1 0.48333 1
0 1 0.48333 1
0 1 0.48333 1
0 1 0.48333 1
0 1 0.48333 1
0 1 0.48333 1
0 1 0.48333 1
0 1 0.48333 1
0 1 0.48333 1
0 1 0.48333 1
0 1 0.48333 1
0 1 0.48333 1
0 1 0.48333 1
0 1 0.48333 1
0 1 0.48333 1
0 1 0.48333 1
0 1 0.48333 1
0 1 0.48333 1
0 1 0.48333 1
0 1 0.48333 1
0 1 0.48333 1
0 1 0.48333 1
0 1 0.48333 1
0 1 0.48333 1
0 1 0.48333 1
0 1 0.48333 1
0 1 0.48333 1
0 1 0.48333 1
0 1 0.48333 1
0 1 0.48333 1
0 1 0.48333 1
0 1 0.48333 1
0 1 0.48333 1
0 1 0.48333 1
0 1 0.48333 1
0 1 0.48333 1
0 1 0.48333 1
0 1 0.48333 1
0 1 0.48333 1
0 1 0.48333 1
0 1 0.48333 1
0 1 0.48333 1
0 1 0.48333 1
0 1 0.48333 1
0 1 0.48333 1
0 1 0.48333 1
0 1 0.48333 1
0 1 0.48333 1
0 1 0.48333 1
0 1 0.48333 1
0 1 0.48333 1
0 1 0.48333 1
0 1 0.48333 1
0 1 0.48333 1
0 1 0.48333 1
0 1 0.48333 1
0 1 0.48333 1
0 1 0.48333 1
0 1 0.48333 1
0 1 0.48333 1
0 1 0.48333 1
0 1 0.48333 1
0 1 0.48333 1
0 1 0.48333 1
0 1 0.48333 1
0 1 0.48333 1
0 1 0.48333 1
0 1 0.48333 1
0 1 0.48333 1
0 1 0.48333 1
0 1 0.48333 1
0 1 0.48333 1
0 1 0.48333 1
0 1 0.48333 1
0 1 0.48333 1
0 1 0.48333 1
0 1 0.48333 1
0 1 0.48333 1
0 1 0.48333 1
0 1 0.48333 1
0 1 0.48333 1
0 1 0.48333 1
0 1 0.48333 1
0 1 0.48333 1
0 1 0.48333 1
0 1 0.48333 1
0 1 0.48333 1
0 1 0.48333 1
0 1 0.48333 1
0 1 0.48333 1
0 1 0.48333 1
0 1 0.48333 1

