# vtk DataFile Version 3.0
Gocad TSurf to VTK
ASCII
DATASET POLYDATA
POINTS 936 float
21576650.000 4563997.500 -918.750
21576800.000 4564090.000 -820.000
21576475.000 4564165.000 -918.750
21576600.000 4564310.000 -820.000
21576350.000 4564020.000 -1017.500
21576725.000 4563900.000 -855.000
21577000.000 4563900.000 -710.000
21576550.000 4563800.000 -982.500
21576650.000 4563720.000 -890.000
21576875.000 4563755.000 -772.500
21576625.000 4563495.000 -897.500
21576425.000 4563660.000 -1063.750
21576750.000 4563625.000 -835.000
21576500.000 4563350.000 -960.000
21576950.000 4563665.000 -701.250
21576975.000 4563607.500 -586.250
21577100.000 4563770.000 -615.000
21577175.000 4563925.000 -615.000
21577100.000 4564022.500 -686.250
21577225.000 4563867.500 -552.500
21577250.000 4563832.500 -513.750
21577350.000 4563965.000 -490.000
21577250.000 4564080.000 -615.000
21577475.000 4564062.500 -427.500
21577400.000 4563895.000 -412.500
21577250.000 4564312.500 -666.250
21577600.000 4564160.000 -365.000
21577100.000 4564235.000 -717.500
21577050.000 4564512.500 -771.250
21577200.000 4564580.000 -755.000
21577000.000 4564330.000 -787.500
21576900.000 4564445.000 -787.500
21576900.000 4564205.000 -803.750
21576750.000 4564377.500 -803.750
21576675.000 4564470.000 -800.000
21576850.000 4564540.000 -800.000
21576525.000 4564672.500 -770.000
21576750.000 4564630.000 -780.000
21576275.000 4564432.500 -867.500
21576150.000 4564585.000 -773.750
21576150.000 4564285.000 -955.000
21576250.000 4564150.000 -975.000
21576075.000 4564070.000 -1052.500
21575650.000 4564595.000 -761.250
21576225.000 4563875.000 -1116.250
21576350.000 4563802.500 -1116.250
21575900.000 4563990.000 -1130.000
21576100.000 4563730.000 -1215.000
21575325.000 4564462.500 -653.750
21575650.000 4564840.000 -600.000
21575400.000 4564130.000 -622.500
21575250.000 4564325.000 -552.500
21575825.000 4563842.500 -983.750
21575650.000 4563825.000 -810.000
21575975.000 4563647.500 -1047.500
21575850.000 4563565.000 -880.000
21576100.000 4563592.500 -1043.750
21576300.000 4563520.000 -1145.000
21576175.000 4563450.000 -991.250
21576500.000 4563360.000 -960.000
21576150.000 4563300.000 -745.000
21576600.000 4563120.000 -500.000
21576425.000 4563092.500 -480.000
21576725.000 4563282.500 -528.750
21576850.000 4563445.000 -557.500
21576200.000 4563180.000 -515.000
21576450.000 4563065.000 -455.000
21576300.000 4563010.000 -410.000
21576250.000 4563065.000 -460.000
21576150.000 4562955.000 -365.000
21576075.000 4563037.500 -440.000
21576000.000 4562900.000 -320.000
21575900.000 4563010.000 -420.000
21576000.000 4563210.000 -522.500
21575900.000 4562745.000 -333.750
21575750.000 4562935.000 -437.500
21575925.000 4562715.000 -275.000
21575850.000 4562530.000 -230.000
21575800.000 4562590.000 -347.500
21575700.000 4562435.000 -361.250
21575700.000 4562725.000 -455.000
21575600.000 4562582.500 -472.500
21575525.000 4562665.000 -472.500
21575500.000 4562440.000 -490.000
21575400.000 4562550.000 -490.000
21575600.000 4562280.000 -375.000
21575775.000 4562345.000 -185.000
21575375.000 4562322.500 -423.750
21575250.000 4562457.500 -447.500
21575450.000 4562202.500 -337.500
21575200.000 4562260.000 -357.500
21575525.000 4562110.000 -161.250
21575350.000 4562060.000 -182.500
21575700.000 4562160.000 -140.000
21575525.000 4562090.000 -150.000
21575350.000 4562020.000 -160.000
21575175.000 4562010.000 -203.750
21575175.000 4561950.000 -170.000
21575300.000 4562125.000 -300.000
21575100.000 4562115.000 -291.250
21575000.000 4561960.000 -225.000
21574800.000 4562180.000 -320.000
21575000.000 4561880.000 -180.000
21574900.000 4561750.000 -270.000
21574825.000 4561842.500 -367.500
21574900.000 4561690.000 -236.250
21574800.000 4561545.000 -315.000
21574800.000 4561500.000 -292.500
21574700.000 4561330.000 -360.000
21574650.000 4561715.000 -510.000
21574700.000 4561310.000 -348.750
21574600.000 4561120.000 -405.000
21574425.000 4561640.000 -676.250
21574300.000 4561460.000 -795.000
21574250.000 4561925.000 -971.250
21574175.000 4561332.500 -645.000
21573625.000 4561482.500 -1046.250
21574400.000 4561077.500 -352.500
21574200.000 4561035.000 -300.000
21574000.000 4560992.500 -247.500
21573800.000 4560950.000 -195.000
21573575.000 4561562.500 -1143.750
21573750.000 4561635.000 -1150.000
21573200.000 4560990.000 -845.000
21573225.000 4561355.000 -1105.000
21573600.000 4560830.000 -286.250
21573400.000 4560715.000 -377.500
21573650.000 4560770.000 -222.500
21573500.000 4560590.000 -250.000
21573350.000 4560410.000 -277.500
21573200.000 4560605.000 -468.750
21573100.000 4560740.000 -702.500
21573200.000 4560230.000 -305.000
21573000.000 4560480.000 -560.000
21572925.000 4560320.000 -468.750
21572400.000 4560190.000 -685.000
21573075.000 4560140.000 -277.500
21572950.000 4560050.000 -250.000
21572825.000 4559960.000 -222.500
21572700.000 4559870.000 -195.000
21572300.000 4560120.000 -486.250
21572225.000 4560185.000 -558.750
21572525.000 4559880.000 -118.750
21572200.000 4560050.000 -287.500
21572050.000 4560180.000 -432.500
21572350.000 4559890.000 -42.500
21572100.000 4559980.000 -88.750
21571875.000 4560175.000 -306.250
21572175.000 4559900.000 33.750
21572000.000 4559910.000 110.000
21571700.000 4560170.000 -180.000
21571800.000 4559680.000 -5.000
21571575.000 4559875.000 -222.500
21571850.000 4559647.500 61.250
21571700.000 4559385.000 12.500
21571400.000 4558850.000 -85.000
21571600.000 4559450.000 -120.000
21571550.000 4559122.500 -36.250
21571400.000 4559220.000 -235.000
21571450.000 4559580.000 -265.000
21571200.000 4558990.000 -350.000
21571100.000 4558695.000 -342.500
21571100.000 4559495.000 -600.000
21570875.000 4559107.500 -553.750
21570900.000 4558890.000 -515.000
21570900.000 4559270.000 -740.000
21570800.000 4559175.000 -628.750
21570800.000 4559420.000 -780.000
21570975.000 4559662.500 -655.000
21570725.000 4559287.500 -658.750
21570500.000 4559497.500 -512.500
21570650.000 4559155.000 -537.500
21570750.000 4559035.000 -467.500
21570500.000 4559295.000 -440.000
21570500.000 4559092.500 -367.500
21570225.000 4559715.000 -431.250
21570100.000 4560110.000 -250.000
21569950.000 4559730.000 -277.500
21569675.000 4559745.000 -123.750
21569750.000 4559935.000 -110.000
21570500.000 4558890.000 -295.000
21570600.000 4558985.000 -406.250
21569400.000 4559760.000 30.000
21569650.000 4559115.000 -102.500
21569250.000 4559677.500 43.750
21570350.000 4558785.000 -280.000
21570050.000 4558575.000 -250.000
21570425.000 4558720.000 -297.500
21570350.000 4558550.000 -300.000
21570800.000 4558610.000 -390.000
21570650.000 4558510.000 -368.750
21570850.000 4558750.000 -452.500
21570900.000 4558705.000 -380.000
21570975.000 4558622.500 -391.250
21571000.000 4558800.000 -370.000
21571050.000 4558547.500 -338.750
21570900.000 4558490.000 -405.000
21571125.000 4558510.000 -275.000
21571250.000 4558605.000 -167.500
21571000.000 4558400.000 -335.000
21571100.000 4558350.000 -250.000
21570775.000 4558397.500 -377.500
21570900.000 4558277.500 -268.750
21570700.000 4558245.000 -307.500
21570975.000 4558240.000 -205.000
21570850.000 4558130.000 -160.000
21570800.000 4558155.000 -202.500
21570725.000 4558020.000 -115.000
21570600.000 4558122.500 -258.750
21570500.000 4558220.000 -318.750
21570700.000 4558032.500 -136.250
21570500.000 4558000.000 -210.000
21570600.000 4557910.000 -70.000
21570525.000 4557852.500 -132.500
21570450.000 4557920.000 -237.500
21570450.000 4557795.000 -195.000
21570350.000 4558012.500 -328.750
21570400.000 4558090.000 -295.000
21570350.000 4557890.000 -315.000
21570300.000 4557935.000 -362.500
21570400.000 4557845.000 -272.500
21570325.000 4557790.000 -325.000
21570250.000 4557857.500 -396.250
21570375.000 4557737.500 -257.500
21570300.000 4557680.000 -320.000
21570300.000 4557690.000 -335.000
21570200.000 4557780.000 -430.000
21570275.000 4557587.500 -481.250
21570375.000 4557520.000 -435.000
21570400.000 4557405.000 -600.000
21570250.000 4557485.000 -627.500
21570450.000 4557360.000 -550.000
21570450.000 4557267.500 -740.000
21570525.000 4557200.000 -665.000
21570200.000 4557405.000 -797.500
21570200.000 4557280.000 -920.000
21570000.000 4557410.000 -960.000
21570500.000 4557130.000 -880.000
21570200.000 4557055.000 -975.000
21570150.000 4557197.500 -976.250
21570350.000 4556980.000 -955.000
21570400.000 4556935.000 -905.000
21570200.000 4556942.500 -1002.500
21570050.000 4557032.500 -1088.750
21570275.000 4556905.000 -992.500
21570200.000 4556830.000 -1030.000
21570300.000 4556882.500 -967.500
21570000.000 4556950.000 -1145.000
21570000.000 4556757.500 -1151.250
21569875.000 4556812.500 -1225.000
21570150.000 4556667.500 -1065.000
21570000.000 4556565.000 -1157.500
21570350.000 4556572.500 -852.500
21570500.000 4556315.000 -675.000
21570650.000 4556057.500 -497.500
21570000.000 4556180.000 -1170.000
21569525.000 4556592.500 -1391.250
21570800.000 4555800.000 -320.000
21570600.000 4555732.500 -463.750
21570000.000 4555855.000 -1032.500
21570700.000 4555690.000 -390.000
21570600.000 4555580.000 -460.000
21570400.000 4555665.000 -607.500
21570500.000 4555470.000 -530.000
21570200.000 4555597.500 -751.250
21570400.000 4555360.000 -600.000
21570000.000 4555530.000 -895.000
21570200.000 4555417.500 -680.000
21570000.000 4555475.000 -760.000
21569800.000 4555560.000 -907.500
21569525.000 4555700.000 -1098.750
21569800.000 4555532.500 -840.000
21569700.000 4555575.000 -913.750
21569600.000 4555590.000 -920.000
21569250.000 4555795.000 -1095.000
21569550.000 4556050.000 -1297.500
21569300.000 4555577.500 -938.750
21569175.000 4555615.000 -987.500
21569525.000 4555495.000 -875.000
21569450.000 4555400.000 -830.000
21569375.000 4555305.000 -785.000
21569300.000 4555210.000 -740.000
21568725.000 4555275.000 -903.750
21568925.000 4555890.000 -1115.000
21569175.000 4555140.000 -757.500
21568775.000 4555045.000 -841.250
21569400.000 4555097.500 -736.250
21569450.000 4554990.000 -760.000
21568825.000 4554617.500 -580.000
21569500.000 4554985.000 -732.500
21569600.000 4554872.500 -728.750
[...]
POINT_DATA 936
COLOR_SCALARS GocadColor 4
1 0.843137 0 1
1 0.843137 0 1
1 0.843137 0 1
1 0.843137 0 1
1 0.843137 0 1
1 0.843137 0 1
1 0.843137 0 1
1 0.843137 0 1
1 0.843137 0 1
1 0.843137 0 1
1 0.843137 0 1
1 0.843137 0 1
1 0.843137 0 1
1 0.843137 0 1
1 0.843137 0 1
1 0.843137 0 1
1 0.843137 0 1
1 0.843137 0 1
1 0.843137 0 1
1 0.843137 0 1
1 0.843137 0 1
1 0.843137 0 1
1 0.843137 0 1
1 0.843137 0 1
1 0.843137 0 1
1 0.843137 0 1
1 0.843137 0 1
1 0.843137 0 1
1 0.843137 0 1
1 0.843137 0 1
1 0.843137 0 1
1 0.843137 0 1
1 0.843137 0 1
1 0.843137 0 1
1 0.843137 0 1
1 0.843137 0 1
1 0.843137 0 1
1 0.843137 0 1
1 0.843137 0 1
1 0.843137 0 1
1 0.843137 0 1
1 0.843137 0 1
1 0.843137 0 1
1 0.843137 0 1
1 0.843137 0 1
1 0.843137 0 1
1 0.843137 0 1
1 0.843137 0 1
1 0.843137 0 1
1 0.843137 0 1
1 0.843137 0 1
1 0.843137 0 1
1 0.843137 0 1
1 0.843137 0 1
1 0.843137 0 1
1 0.843137 0 1
1 0.843137 0 1
1 0.843137 0 1
1 0.843137 0 1
1 0.843137 0 1
1 0.843137 0 1
1 0.843137 0 1
1 0.843137 0 1
1 0.843137 0 1
1 0.843137 0 1
1 0.843137 0 1
1 0.843137 0 1
1 0.843137 0 1
1 0.843137 0 1
1 0.843137 0 1
1 0.843137 0 1
1 0.843137 0 1
1 0.843137 0 1
1 0.843137 0 1
1 0.843137 0 1
1 0.843137 0 1
1 0.843137 0 1
1 0.843137 0 1
1 0.843137 0 1
1 0.843137 0 1
1 0.843137 0 1
1 0.843137 0 1
1 0.843137 0 1
1 0.843137 0 1
1 0.843137 0 1
1 0.843137 0 1
1 0.843137 0 1
1 0.843137 0 1
1 0.843137 0 1
1 0.843137 0 1
1 0.843137 0 1
1 0.843137 0 1
1 0.843137 0 1
1 0.843137 0 1
1 0.843137 0 1
1 0.843137 0 1
1 0.843137 0 1
1 0.843137 0 1
1 0.843137 0 1
1 0.843137 0 1
1 0.843137 0 1
1 0.843137 0 1
1 0.843137 0 1
1 0.843137 0 1
1 0.843137 0 1
1 0.843137 0 1
1 0.843137 0 1
1 0.843137 0 1
1 0.843137 0 1
1 0.843137 0 1
1 0.843137 0 1
1 0.843137 0 1
1 0.843137 0 1
1 0.843137 0 1
1 0.843137 0 1
1 0.843137 0 1
1 0.843137 0 1
1 0.843137 0 1
1 0.843137 0 1
1 0.843137 0 1
1 0.843137 0 1
1 0.843137 0 1
1 0.843137 0 1
1 0.843137 0 1
1 0.843137 0 1
1 0.843137 0 1
1 0.843137 0 1
1 0.843137 0 1
1 0.843137 0 1
1 0.843137 0 1
1 0.843137 0 1
1 0.843137 0 1
1 0.843137 0 1
1 0.843137 0 1
1 0.843137 0 1
1 0.843137 0 1
1 0.843137 0 1
1 0.843137 0 1
1 0.843137 0 1
1 0.843137 0 1
1 0.843137 0 1
1 0.843137 0 1
1 0.843137 0 1
1 0.843137 0 1
1 0.843137 0 1
1 0.843137 0 1
1 0.843137 0 1
1 0.843137 0 1
1 0.843137 0 1
1 0.843137 0 1
1 0.843137 0 1
1 0.843137 0 1
1 0.843137 0 1
1 0.843137 0 1
1 0.843137 0 1
1 0.843137 0 1
1 0.843137 0 1
1 0.843137 0 1
1 0.843137 0 1
1 0.843137 0 1
1 0.843137 0 1
1 0.843137 0 1
1 0.843137 0 1
1 0.843137 0 1
1 0.843137 0 1
1 0.843137 0 1
1 0.843137 0 1
1 0.843137 0 1
1 0.843137 0 1
1 0.843137 0 1
1 0.843137 0 1
1 0.843137 0 1
1 0.843137 0 1
1 0.843137 0 1
1 0.843137 0 1
1 0.843137 0 1
1 0.843137 0 1
1 0.843137 0 1
1 0.843137 0 1
1 0.843137 0 1
1 0.843137 0 1
1 0.843137 0 1
1 0.843137 0 1
1 0.843137 0 1
1 0.843137 0 1
1 0.843137 0 1
1 0.843137 0 1
1 0.843137 0 1
1 0.843137 0 1
1 0.843137 0 1
1 0.843137 0 1
1 0.843137 0 1
1 0.843137 0 1
1 0.843137 0 1
1 0.843137 0 1
1 0.843137 0 1
1 0.843137 0 1
1 0.843137 0 1
1 0.843137 0 1
1 0.843137 0 1
1 0.843137 0 1
1 0.843137 0 1
1 0.843137 0 1
1 0.843137 0 1
1 0.843137 0 1
1 0.843137 0 1
1 0.843137 0 1
1 0.843137 0 1
1 0.843137 0 1
1 0.843137 0 1
1 0.843137 0 1
1 0.843137 0 1
1 0.843137 0 1
1 0.843137 0 1
1 0.843137 0 1
1 0.843137 0 1
1 0.843137 0 1
1 0.843137 0 1
1 0.843137 0 1
1 0.843137 0 1
1 0.843137 0 1
1 0.843137 0 1
1 0.843137 0 1
1 0.843137 0 1
1 0.843137 0 1
1 0.843137 0 1
1 0.843137 0 1
1 0.843137 0 1
1 0.843137 0 1
1 0.843137 0 1
1 0.843137 0 1
1 0.843137 0 1
1 0.843137 0 1
1 0.843137 0 1
1 0.843137 0 1
1 0.843137 0 1
1 0.843137 0 1
1 0.843137 0 1
1 0.843137 0 1
1 0.843137 0 1
1 0.843137 0 1
1 0.843137 0 1
1 0.843137 0 1
1 0.843137 0 1
1 0.843137 0 1
1 0.843137 0 1
1 0.843137 0 1
1 0.843137 0 1
1 0.843137 0 1
1 0.843137 0 1
1 0.843137 0 1
1 0.843137 0 1
1 0.843137 0 1
1 0.843137 0 1
1 0.843137 0 1
1 0.843137 0 1
1 0.843137 0 1
1 0.843137 0 1
1 0.843137 0 1
1 0.843137 0 1
1 0.843137 0 1
1 0.843137 0 1
1 0.843137 0 1
1 0.843137 0 1
1 0.843137 0 1
1 0.843137 0 1
1 0.843137 0 1
1 0.843137 0 1
1 0.843137 0 1
1 0.843137 0 1
1 0.843137 0 1
1 0.843137 0 1
1 0.843137 0 1
1 0.843137 0 1
1 0.843137 0 1
1 0.843137 0 1
1 0.843137 0 1
1 0.843137 0 1
1 0.843137 0 1
1 0.843137 0 1
1 0.843137 0 1
1 0.843137 0 1
1 0.843137 0 1
1 0.843137 0 1
1 0.843137 0 1
1 0.843137 0 1
1 0.843137 0 1
1 0.843137 0 1
1 0.843137 0 1
1 0.843137 0 1
1 0.843137 0 1
1 0.843137 0 1
1 0.843137 0 1
1 0.843137 0 1
1 0.843137 0 1
1 0.843137 0 1
1 0.843137 0 1
1 0.843137 0 1
1 0.843137 0 1
1 0.843137 0 1
1 0.843137 0 1
1 0.843137 0 1
1 0.843137 0 1
1 0.843137 0 1
1 0.843137 0 1
1 0.843137 0 1
1 0.843137 0 1
1 0.843137 0 1
1 0.843137 0 1
1 0.843137 0 1
1 0.843137 0 1
1 0.843137 0 1
1 0.843137 0 1
1 0.843137 0 1
1 0.843137 0 1
1 0.843137 0 1
1 0.843137 0 1
1 0.843137 0 1
1 0.843137 0 1
1 0.843137 0 1
1 0.843137 0 1
1 0.843137 0 1
1 0.843137 0 1
1 0.843137 0 1
1 0.843137 0 1
1 0.843137 0 1
1 0.843137 0 1
1 0.843137 0 1
1 0.843137 0 1
1 0.843137 0 1
1 0.843137 0 1
1 0.843137 0 1
1 0.843137 0 1
1 0.843137 0 1
1 0.843137 0 1
1 0.843137 0 1
1 0.843137 0 1
1 0.843137 0 1
1 0.843137 0 1
1 0.843137 0 1
1 0.843137 0 1
1 0.843137 0 1
1 0.843137 0 1
1 0.843137 0 1
1 0.843137 0 1
1 0.843137 0 1
1 0.843137 0 1
1 0.843137 0 1
1 0.843137 0 1
1 0.843137 0 1
1 0.843137 0 1
1 0.843137 0 1
1 0.843137 0 1
1 0.843137 0 1
1 0.843137 0 1
1 0.843137 0 1
1 0.843137 0 1
1 0.843137 0 1
1 0.843137 0 1
1 0.843137 0 1
1 0.843137 0 1
1 0.843137 0 1
1 0.843137 0 1
1 0.843137 0 1
1 0.843137 0 1
1 0.843137 0 1
1 0.843137 0 1
1 0.843137 0 1
1 0.843137 0 1
1 0.843137 0 1
1 0.843137 0 1
1 0.843137 0 1
1 0.843137 0 1
1 0.843137 0 1
1 0.843137 0 1
1 0.843137 0 1
1 0.843137 0 1
1 0.843137 0 1
1 0.843137 0 1
1 0.843137 0 1
1 0.843137 0 1
1 0.843137 0 1
1 0.843137 0 1
1 0.843137 0 1
1 0.843137 0 1
1 0.843137 0 1
1 0.843137 0 1
1 0.843137 0 1
1 0.843137 0 1
1 0.843137 0 1
1 0.843137 0 1
1 0.843137 0 1
1 0.843137 0 1
1 0.843137 0 1
1 0.843137 0 1
1 0.843137 0 1
1 0.843137 0 1
1 0.843137 0 1
1 0.843137 0 1
1 0.843137 0 1
1 0.843137 0 1
1 0.843137 0 1
1 0.843137 0 1
1 0.843137 0 1
1 0.843137 0 1
1 0.843137 0 1
1 0.843137 0 1
1 0.843137 0 1
1 0.843137 0 1
1 0.843137 0 1
1 0.843137 0 1
1 0.843137 0 1
1 0.843137 0 1
1 0.843137 0 1
1 0.843137 0 1
1 0.843137 0 1
1 0.843137 0 1
1 0.843137 0 1
1 0.843137 0 1
1 0.843137 0 1
1 0.843137 0 1
1 0.843137 0 1
1 0.843137 0 1
1 0.843137 0 1
1 0.843137 0 1
1 0.843137 0 1
1 0.843137 0 1
1 0.843137 0 1
1 0.843137 0 1
1 0.843137 0 1
1 0.843137 0 1
1 0.843137 0 1
1 0.843137 0 1
1 0.843137 0 1
1 0.843137 0 1
1 0.843137 0 1
1 0.843137 0 1
1 0.843137 0 1
1 0.843137 0 1
1 0.843137 0 1
1 0.843137 0 1
1 0.843137 0 1
1 0.843137 0 1
1 0.843137 0 1
1 0.843137 0 1
1 0.843137 0 1
1 0.843137 0 1
1 0.843137 0 1
1 0.843137 0 1
1 0.843137 0 1
1 0.843137 0 1
1 0.843137 0 1
1 0.843137 0 1
1 0.843137 0 1
1 0.843137 0 1
1 0.843137 0 1
1 0.843137 0 1
1 0.843137 0 1
1 0.843137 0 1
1 0.843137 0 1
1 0.843137 0 1
1 0.843137 0 1
1 0.843137 0 1
1 0.843137 0 1
1 0.843137 0 1
1 0.843137 0 1
1 0.843137 0 1
1 0.843137 0 1
1 0.843137 0 1
1 0.843137 0 1
1 0.843137 0 1
1 0.843137 0 1
1 0.843137 0 1
1 0.843137 0 1
1 0.843137 0 1
1 0.843137 0 1
1 0.843137 0 1
1 0.843137 0 1
1 0.843137 0 1
1 0.843137 0 1
1 0.843137 0 1
1 0.843137 0 1
1 0.843137 0 1
1 0.843137 0 1
1 0.843137 0 1
1 0.843137 0 1
1 0.843137 0 1
1 0.843137 0 1
1 0.843137 0 1
1 0.843137 0 1
1 0.843137 0 1
1 0.843137 0 1
1 0.843137 0 1
1 0.843137 0 1
1 0.843137 0 1
1 0.843137 0 1
1 0.843137 0 1
1 0.843137 0 1
1 0.843137 0 1
1 0.843137 0 1
1 0.843137 0 1
1 0.843137 0 1
1 0.843137 0 1
1 0.843137 0 1
1 0.843137 0 1
1 0.843137 0 1
1 0.843137 0 1
1 0.843137 0 1
1 0.843137 0 1
1 0.843137 0 1
1 0.843137 0 1
1 0.843137 0 1
1 0.843137 0 1
1 0.843137 0 1
1 0.843137 0 1
1 0.843137 0 1
1 0.843137 0 1
1 0.843137 0 1
1 0.843137 0 1
1 0.843137 0 1
1 0.843137 0 1
1 0.843137 0 1
1 0.843137 0 1
1 0.843137 0 1
1 0.843137 0 1
1 0.843137 0 1
1 0.843137 0 1
1 0.843137 0 1
1 0.843137 0 1
1 0.843137 0 1
1 0.843137 0 1
1 0.843137 0 1
1 0.843137 0 1
1 0.843137 0 1
1 0.843137 0 1
1 0.843137 0 1
1 0.843137 0 1
1 0.843137 0 1
1 0.843137 0 1
1 0.843137 0 1
1 0.843137 0 1
1 0.843137 0 1
1 0.843137 0 1
1 0.843137 0 1
1 0.843137 0 1
1 0.843137 0 1
1 0.843137 0 1
1 0.843137 0 1
1 0.843137 0 1
1 0.843137 0 1
1 0.843137 0 1
1 0.843137 0 1
1 0.843137 0 1
1 0.843137 0 1
1 0.843137 0 1
1 0.843137 0 1
1 0.843137 0 1
1 0.843137 0 1
1 0.843137 0 1
1 0.843137 0 1
1 0.843137 0 1
1 0.843137 0 1
1 0.843137 0 1
1 0.843137 0 1
1 0.843137 0 1
1 0.843137 0 1
1 0.843137 0 1
1 0.843137 0 1
1 0.843137 0 1
1 0.843137 0 1
1 0.843137 0 1
1 0.843137 0 1
1 0.843137 0 1
1 0.843137 0 1
1 0.843137 0 1
1 0.843137 0 1
1 0.843137 0 1
1 0.843137 0 1
1 0.843137 0 1
1 0.843137 0 1
1 0.843137 0 1
1 0.843137 0 1
1 0.843137 0 1
1 0.843137 0 1
1 0.843137 0 1
1 0.843137 0 1
1 0.843137 0 1
1 0.843137 0 1
1 0.843137 0 1
1 0.843137 0 1
1 0.843137 0 1
1 0.843137 0 1
1 0.843137 0 1
1 0.843137 0 1
1 0.843137 0 1
1 0.843137 0 1
1 0.843137 0 1
1 0.843137 0 1
1 0.843137 0 1
1 0.843137 0 1
1 0.843137 0 1
1 0.843137 0 1
1 0.843137 0 1
1 0.843137 0 1
1 0.843137 0 1
1 0.843137 0 1
1 0.843137 0 1
1 0.843137 0 1
1 0.843137 0 1
1 0.843137 0 1
1 0.843137 0 1
1 0.843137 0 1
1 0.843137 0 1
1 0.843137 0 1
1 0.843137 0 1
1 0.843137 0 1
1 0.843137 0 1
1 0.843137 0 1
1 0.843137 0 1
1 0.843137 0 1
1 0.843137 0 1
1 0.843137 0 1
1 0.843137 0 1
1 0.843137 0 1
1 0.843137 0 1
1 0.843137 0 1
1 0.843137 0 1
1 0.843137 0 1
1 0.843137 0 1
1 0.843137 0 1
1 0.843137 0 1
1 0.843137 0 1
1 0.843137 0 1
1 0.843137 0 1
1 0.843137 0 1
1 0.843137 0 1
1 0.843137 0 1
1 0.843137 0 1
1 0.843137 0 1
1 0.843137 0 1
1 0.843137 0 1
1 0.843137 0 1
1 0.843137 0 1
1 0.843137 0 1
1 0.843137 0 1
1 0.843137 0 1
1 0.843137 0 1
1 0.843137 0 1
1 0.843137 0 1
1 0.843137 0 1
1 0.843137 0 1
1 0.843137 0 1
1 0.843137 0 1
1 0.843137 0 1
1 0.843137 0 1
1 0.843137 0 1
1 0.843137 0 1
1 0.843137 0 1
1 0.843137 0 1
1 0.843137 0 1
1 0.843137 0 1
1 0.843137 0 1
1 0.843137 0 1
1 0.843137 0 1
1 0.843137 0 1
1 0.843137 0 1
1 0.843137 0 1
1 0.843137 0 1
1 0.843137 0 1
1 0.843137 0 1
1 0.843137 0 1
1 0.843137 0 1
1 0.843137 0 1
1 0.843137 0 1
1 0.843137 0 1
1 0.843137 0 1
1 0.843137 0 1
1 0.843137 0 1
1 0.843137 0 1
1 0.843137 0 1
1 0.843137 0 1
1 0.843137 0 1
1 0.843137 0 1
1 0.843137 0 1
1 0.843137 0 1
1 0.843137 0 1
1 0.843137 0 1
1 0.843137 0 1
1 0.843137 0 1
1 0.843137 0 1
1 0.843137 0 1
1 0.843137 0 1
1 0.843137 0 1
1 0.843137 0 1
1 0.843137 0 1
1 0.843137 0 1
1 0.843137 0 1
1 0.843137 0 1
1 0.843137 0 1
1 0.843137 0 1
1 0.843137 0 1
1 0.843137 0 1
1 0.843137 0 1
1 0.843137 0 1
1 0.843137 0 1
1 0.843137 0 1
1 0.843137 0 1
1 0.843137 0 1
1 0.843137 0 1
1 0.843137 0 1
1 0.843137 0 1
1 0.843137 0 1
1 0.843137 0 1
1 0.843137 0 1
1 0.843137 0 1
1 0.843137 0 1
1 0.843137 0 1
1 0.843137 0 1
1 0.843137 0 1
1 0.843137 0 1
1 0.843137 0 1
1 0.843137 0 1
1 0.843137 0 1
1 0.843137 0 1
1 0.843137 0 1
1 0.843137 0 1
1 0.843137 0 1
1 0.843137 0 1
1 0.843137 0 1
1 0.843137 0 1
1 0.843137 0 1
1 0.843137 0 1
1 0.843137 0 1
1 0.843137 0 1
1 0.843137 0 1
1 0.843137 0 1
1 0.843137 0 1
1 0.843137 0 1
1 0.843137 0 1
1 0.843137 0 1
1 0.843137 0 1
1 0.843137 0 1
1 0.843137 0 1
1 0.843137 0 1
1 0.843137 0 1
1 0.843137 0 1
1 0.843137 0 1
1 0.843137 0 1
1 0.843137 0 1
1 0.843137 0 1
1 0.843137 0 1
1 0.843137 0 1
1 0.843137 0 1
1 0.843137 0 1
1 0.843137 0 1
1 0.843137 0 1
1 0.843137 0 1
1 0.843137 0 1
1 0.843137 0 1
1 0.843137 0 1
1 0.843137 0 1
1 0.843137 0 1
1 0.843137 0 1
1 0.843137 0 1
1 0.843137 0 1
1 0.843137 0 1
1 0.843137 0 1
1 0.843137 0 1
1 0.843137 0 1
1 0.843137 0 1
1 0.843137 0 1
1 0.843137 0 1
1 0.843137 0 1
1 0.843137 0 1
1 0.843137 0 1
1 0.843137 0 1
1 0.843137 0 1
1 0.843137 0 1
1 0.843137 0 1
1 0.843137 0 1
1 0.843137 0 1
1 0.843137 0 1
1 0.843137 0 1
1 0.843137 0 1
1 0.843137 0 1
1 0.843137 0 1
1 0.843137 0 1
1 0.843137 0 1
1 0.843137 0 1
1 0.843137 0 1
1 0.843137 0 1
1 0.843137 0 1
1 0.843137 0 1
1 0.843137 0 1
1 0.843137 0 1
1 0.843137 0 1
1 0.843137 0 1
1 0.843137 0 1
1 0.843137 0 1
1 0.843137 0 1
1 0.843137 0 1
1 0.843137 0 1
1 0.843137 0 1
1 0.843137 0 1
1 0.843137 0 1
1 0.843137 0 1
1 0.843137 0 1
1 0.843137 0 1
1 0.843137 0 1
1 0.843137 0 1
1 0.843137 0 1
1 0.843137 0 1
1 0.843137 0 1
1 0.843137 0 1
1 0.843137 0 1
1 0.843137 0 1
1 0.843137 0 1
1 0.843137 0 1
1 0.843137 0 1
1 0.843137 0 1
1 0.843137 0 1
1 0.843137 0 1
1 0.843137 0 1
1 0.843137 0 1
1 0.843137 0 1
1 0.843137 0 1
1 0.843137 0 1
1 0.843137 0 1
1 0.843137 0 1
1 0.843137 0 1
1 0.843137 0 1
1 0.843137 0 1
1 0.843137 0 1
1 0.843137 0 1
1 0.843137 0 1
1 0.843137 0 1
1 0.843137 0 1
1 0.843137 0 1
1 0.843137 0 1
1 0.843137 0 1
1 0.843137 0 1
1 0.843137 0 1
1 0.843137 0 1
1 0.843137 0 1
1 0.843137 0 1
1 0.843137 0 1
1 0.843137 0 1
1 0.843137 0 1
1 0.843137 0 1
1 0.843137 0 1
1 0.843137 0 1
1 0.843137 0 1
1 0.843137 0 1
1 0.843137 0 1
1 0.843137 0 1
1 0.843137 0 1
1 0.843137 0 1
1 0.843137 0 1
1 0.843137 0 1
1 0.843137 0 1
1 0.843137 0 1
1 0.843137 0 1
1 0.843137 0 1
1 0.843137 0 1
1 0.843137 0 1
1 0.843137 0 1
1 0.843137 0 1
1 0.843137 0 1
1 0.843137 0 1
1 0.843137 0 1
1 0.843137 0 1
1 0.843137 0 1
1 0.843137 0 1
1 0.843137 0 1
1 0.843137 0 1
1 0.843137 0 1
1 0.843137 0 1
1 0.843137 0 1
1 0.843137 0 1
1 0.843137 0 1
1 0.843137 0 1
1 0.843137 0 1
1 0.843137 0 1
1 0.843137 0 1
1 0.843137 0 1
1 0.843137 0 1
1 0.843137 0 1
1 0.843137 0 1
1 0.843137 0 1
1 0.843137 0 1
1 0.843137 0 1
1 0.843137 0 1
1 0.843137 0 1
1 0.843137 0 1
1 0.843137 0 1
1 0.843137 0 1
1 0.843137 0 1
1 0.843137 0 1
1 0.843137 0 1
1 0.843137 0 1
1 0.843137 0 1
1 0.843137 0 1
1 0.843137 0 1
1 0.843137 0 1
1 0.843137 0 1
1 0.843137 0 1
1 0.843137 0 1
1 0.843137 0 1
1 0.843137 0 1
1 0.843137 0 1
1 0.843137 0 1
1 0.843137 0 1
1 0.843137 0 1
1 0.843137 0 1
1 0.843137 0 1
1 0.843137 0 1
1 0.843137 0 1
1 0.843137 0 1
1 0.843137 0 1
1 0.843137 0 1
1 0.843137 0 1
1 0.843137 0 1
1 0.843137 0 1
1 0.843137 0 1
1 0.843137 0 1
1 0.843137 0 1
1 0.843137 0 1
1 0.843137 0 1
1 0.843137 0 1
1 0.843137 0 1
1 0.843137 0 1
1 0.843137 0 1
1 0.843137 0 1
1 0.843137 0 1
1 0.843137 0 1
1 0.843137 0 1

