# vtk DataFile Version 3.0
Gocad TSurf to VTK
ASCII
DATASET POLYDATA
POINTS 32 float
21557900.000 4570085.000 92.500
21558000.000 4569870.000 60.000
21557900.000 4570092.500 73.750
21557800.000 4570310.000 100.000
21558000.000 4569860.000 85.000
21557900.000 4570085.000 28.750
21557800.000 4570310.000 57.500
21558000.000 4569860.000 0.000
21557900.000 4569840.000 -10.000
21557825.000 4570070.000 21.250
21557825.000 4570070.000 21.250
21557750.000 4570300.000 52.500
21557750.000 4570300.000 52.500
21557700.000 4570535.000 86.250
21557675.000 4570530.000 83.750
21557675.000 4570530.000 83.750
21557600.000 4570760.000 115.000
21557700.000 4570535.000 107.500
21557700.000 4570537.500 101.250
21557800.000 4570315.000 87.500
21557375.000 4570485.000 -73.750
21557200.000 4570700.000 -95.000
21557550.000 4570270.000 -52.500
21557400.000 4570245.000 -107.500
21557725.000 4570055.000 -31.250
21557650.000 4570042.500 -58.750
21557600.000 4570030.000 -65.000
21557300.000 4570220.000 -120.000
21557150.000 4570447.500 -156.250
21557000.000 4570410.000 -175.000
21556900.000 4570650.000 -205.000
21556700.000 4570600.000 -230.000

POLYGONS 48 192
3 25 23 26
3 22 15 20
3 10 24 8
3 25 26 8
3 6 9 5
3 13 16 14
3 25 22 23
3 0 1 2
3 28 21 30
3 6 3 13
3 16 17 18
3 23 20 28
3 23 28 27
3 24 12 22
3 27 28 29
3 20 16 21
3 13 3 17
3 9 10 8
3 26 23 27
3 3 19 17
3 16 13 17
3 11 15 12
3 15 16 20
3 0 2 3
3 6 0 3
3 17 19 18
3 5 0 6
3 5 9 8
3 11 14 15
3 3 2 19
3 9 11 12
3 6 11 9
3 20 21 28
3 10 12 24
3 13 11 6
3 13 14 11
3 24 22 25
3 22 20 23
3 24 25 8
3 4 1 0
3 7 4 5
3 14 16 15
3 9 12 10
3 29 30 31
3 28 30 29
3 5 4 0
3 12 15 22
3 8 7 5

POINT_DATA 32
COLOR_SCALARS GocadColor 4
0.611765 0.243137 0.807843 1
0.611765 0.243137 0.807843 1
0.611765 0.243137 0.807843 1
0.611765 0.243137 0.807843 1
0.611765 0.243137 0.807843 1
0.611765 0.243137 0.807843 1
0.611765 0.243137 0.807843 1
0.611765 0.243137 0.807843 1
0.611765 0.243137 0.807843 1
0.611765 0.243137 0.807843 1
0.611765 0.243137 0.807843 1
0.611765 0.243137 0.807843 1
0.611765 0.243137 0.807843 1
0.611765 0.243137 0.807843 1
0.611765 0.243137 0.807843 1
0.611765 0.243137 0.807843 1
0.611765 0.243137 0.807843 1
0.611765 0.243137 0.807843 1
0.611765 0.243137 0.807843 1
0.611765 0.243137 0.807843 1
0.611765 0.243137 0.807843 1
0.611765 0.243137 0.807843 1
0.611765 0.243137 0.807843 1
0.611765 0.243137 0.807843 1
0.611765 0.243137 0.807843 1
0.611765 0.243137 0.807843 1
0.611765 0.243137 0.807843 1
0.611765 0.243137 0.807843 1
0.611765 0.243137 0.807843 1
0.611765 0.243137 0.807843 1
0.611765 0.243137 0.807843 1
0.611765 0.243137 0.807843 1

