# vtk DataFile Version 3.0
Gocad TSurf to VTK
ASCII
DATASET POLYDATA
POINTS 739 float
21563325.000 4565820.000 -2458.750
21567200.000 4567370.000 -1645.000
21565550.000 4566417.500 -1828.750
21567100.000 4567215.000 -1672.500
21564575.000 4566180.000 -2076.250
21563550.000 4566750.000 -2127.500
21562575.000 4565732.500 -2611.250
21565400.000 4567210.000 -1795.000
21566100.000 4568050.000 -1580.000
21564800.000 4567910.000 -2205.000
21562500.000 4567245.000 -2985.000
21562450.000 4565830.000 -2572.500
21562700.000 4568150.000 -2385.000
21563900.000 4568340.000 -2267.500
21561350.000 4567325.000 -2965.000
21559700.000 4566940.000 -3180.000
21560475.000 4566560.000 -3485.000
21559750.000 4566150.000 -3740.000
21558400.000 4566400.000 -3570.000
21559350.000 4565640.000 -3833.750
21558725.000 4565627.500 -3977.500
21558350.000 4565150.000 -3852.500
21557900.000 4566062.500 -3692.500
21557700.000 4565560.000 -3905.000
21558175.000 4566715.000 -3528.750
21557350.000 4566782.500 -3590.000
21560300.000 4567730.000 -3040.000
21557100.000 4566770.000 -3615.000
21560625.000 4568330.000 -2666.250
21557100.000 4566680.000 -3597.500
21556925.000 4566615.000 -3590.000
21557025.000 4566245.000 -3572.500
21556750.000 4566460.000 -3565.000
21556875.000 4565915.000 -3627.500
21556500.000 4566050.000 -3550.000
21556200.000 4565785.000 -3515.000
21556400.000 4566150.000 -3515.000
21556300.000 4565967.500 -3515.000
21556575.000 4566305.000 -3540.000
21556200.000 4565935.000 -3480.000
21556000.000 4565720.000 -3445.000
21555800.000 4565505.000 -3410.000
21555875.000 4565260.000 -3472.500
21556425.000 4565200.000 -3667.500
21555600.000 4565290.000 -3375.000
21555375.000 4565057.500 -3365.000
21555150.000 4564825.000 -3355.000
21554925.000 4564592.500 -3345.000
21556725.000 4565067.500 -3793.750
21554700.000 4564360.000 -3335.000
21555225.000 4564460.000 -3471.250
21555700.000 4564125.000 -3460.000
21554550.000 4564190.000 -3370.000
21554400.000 4564020.000 -3405.000
21554250.000 4563850.000 -3440.000
21554100.000 4563680.000 -3475.000
21554225.000 4563632.500 -3366.250
21554475.000 4563537.500 -3148.750
21553975.000 4563537.500 -3296.250
21553850.000 4563395.000 -3117.500
21553725.000 4563252.500 -2938.750
21553600.000 4563110.000 -2760.000
21554300.000 4563287.500 -2997.500
21555075.000 4563575.000 -3186.250
21553550.000 4563002.500 -2787.500
21553500.000 4562895.000 -2815.000
21553550.000 4563002.500 -2787.500
21553450.000 4562787.500 -2842.500
21553400.000 4562680.000 -2870.000
21553450.000 4562787.500 -2842.500
21556025.000 4563745.000 -3478.750
21555450.000 4563165.000 -3660.000
21556200.000 4563290.000 -3906.250
21553650.000 4562635.000 -3076.250
21553900.000 4562590.000 -3282.500
21553450.000 4562552.500 -3030.000
21553650.000 4562485.000 -3232.500
21553350.000 4562380.000 -3157.500
21553325.000 4562230.000 -3301.250
21553500.000 4562425.000 -3190.000
21553550.000 4562297.500 -3350.000
21553300.000 4562080.000 -3445.000
21553775.000 4562387.500 -3413.750
21553600.000 4562170.000 -3510.000
21553875.000 4562190.000 -3701.250
21553525.000 4562045.000 -3622.500
21553700.000 4562025.000 -3765.000
21553300.000 4561977.500 -3573.750
21553300.000 4561977.500 -3573.750
21553450.000 4561920.000 -3735.000
21553300.000 4561875.000 -3702.500
21553300.000 4561772.500 -3831.250
21553300.000 4561670.000 -3960.000
21553700.000 4561750.000 -3831.250
21553350.000 4561515.000 -3612.500
21553400.000 4561360.000 -3265.000
21554600.000 4561860.000 -3420.000
21553375.000 4561437.500 -3438.750
21553625.000 4561407.500 -3428.750
21554525.000 4561785.000 -3545.000
21553350.000 4561307.500 -3387.500
21553300.000 4561255.000 -3510.000
21553250.000 4561202.500 -3632.500
21554075.000 4561502.500 -3756.250
21553200.000 4561150.000 -3755.000
21554050.000 4561402.500 -3843.750
21553225.000 4561102.500 -3720.000
21554375.000 4561627.500 -3795.000
21554475.000 4561557.500 -3888.750
21554650.000 4561570.000 -3857.500
21554825.000 4561572.500 -3826.250
21553550.000 4561107.500 -3691.250
21555225.000 4561467.500 -3626.250
21554800.000 4561740.000 -3890.000
21554150.000 4561145.000 -3732.500
21554850.000 4561100.000 -3885.000
21553300.000 4560890.000 -3628.750
21553300.000 4560770.000 -3656.250
21553300.000 4560950.000 -3615.000
21553275.000 4560885.000 -3632.500
21553275.000 4561007.500 -3650.000
21553275.000 4561000.000 -3650.000
21553250.000 4561050.000 -3685.000
21553225.000 4561100.000 -3720.000
21553250.000 4560820.000 -3650.000
21553225.000 4560755.000 -3667.500
21553200.000 4560690.000 -3685.000
21553275.000 4560662.500 -3667.500
21553350.000 4560677.500 -3656.250
21553650.000 4560780.000 -3750.000
21553350.000 4560635.000 -3650.000
21553400.000 4560645.000 -3642.500
21553425.000 4560607.500 -3632.500
21553500.000 4560580.000 -3615.000
21554850.000 4560862.500 -3761.250
21553850.000 4560640.000 -3632.500
21554550.000 4560760.000 -3667.500
21553450.000 4560495.000 -3558.750
21553400.000 4560410.000 -3502.500
21553450.000 4560495.000 -3558.750
21553350.000 4560325.000 -3446.250
21553300.000 4560240.000 -3390.000
21554200.000 4560480.000 -3552.500
21554975.000 4560700.000 -3692.500
21553450.000 4560165.000 -3412.500
21553500.000 4560140.000 -3420.000
21553575.000 4560085.000 -3431.250
21554100.000 4560102.500 -3522.500
21553725.000 4559975.000 -3453.750
21553800.000 4559920.000 -3465.000
21554900.000 4560290.000 -3660.000
21554075.000 4559980.000 -3551.250
21555550.000 4560430.000 -3797.500
21555100.000 4559950.000 -3960.000
21555475.000 4561210.000 -3938.750
21557000.000 4560925.000 -3610.000
21555100.000 4561010.000 -3852.500
21555200.000 4561120.000 -3925.000
21555300.000 4561385.000 -3678.750
21555600.000 4561615.000 -3615.000
21558500.000 4562340.000 -3545.000
21556875.000 4561822.500 -3693.750
21557625.000 4562335.000 -3322.500
21558375.000 4562357.500 -3453.750
21560450.000 4563155.000 -2972.500
21558800.000 4562775.000 -3131.250
21558875.000 4562027.500 -3320.000
21562000.000 4563150.000 -2707.500
21558150.000 4561545.000 -3400.000
21557575.000 4560385.000 -3432.500
21559800.000 4560740.000 -2930.000
21556225.000 4559932.500 -3661.250
21556925.000 4559955.000 -3517.500
21556400.000 4559230.000 -3530.000
21559275.000 4560237.500 -3181.250
21558300.000 4559205.000 -3030.000
21560050.000 4560200.000 -3000.000
21559725.000 4560005.000 -3055.000
21560650.000 4560395.000 -2910.000
21560600.000 4560200.000 -2930.000
21561075.000 4560825.000 -2781.250
21561825.000 4561295.000 -2563.750
21561425.000 4560732.500 -2720.000
21562500.000 4560810.000 -2345.000
21562300.000 4561775.000 -2427.500
21562200.000 4562020.000 -2490.000
21562775.000 4560980.000 -2393.750
21563325.000 4561320.000 -2491.250
21563300.000 4561147.500 -2390.000
21564100.000 4561480.000 -2435.000
21564900.000 4561822.500 -2480.000
21564400.000 4561585.000 -2455.000
21565350.000 4561972.500 -2510.000
21565700.000 4562160.000 -2525.000
21566300.000 4562360.000 -2565.000
21563675.000 4561635.000 -2487.500
21564850.000 4562120.000 -2427.500
21564000.000 4562090.000 -2330.000
21566075.000 4562400.000 -2441.250
21567200.000 4563120.000 -2190.000
21566975.000 4562930.000 -2283.750
21565200.000 4562705.000 -2330.000
21563775.000 4562345.000 -2341.250
21567000.000 4563170.000 -2225.000
21566400.000 4563320.000 -2330.000
21567425.000 4563302.500 -2166.250
21567150.000 4563597.500 -2326.250
21567650.000 4563485.000 -2142.500
21567875.000 4563667.500 -2118.750
21568100.000 4563850.000 -2095.000
21568350.000 4563987.500 -2161.250
21568675.000 4564092.500 -2132.500
21567800.000 4563865.000 -2337.500
21565300.000 4563200.000 -2470.000
21568600.000 4564125.000 -2227.500
21569025.000 4564450.000 -2345.000
21569250.000 4564335.000 -2170.000
21568900.000 4564162.500 -2258.750
21569700.000 4564475.000 -2422.500
21569600.000 4564710.000 -2352.500
21569075.000 4564772.500 -2225.000
21570400.000 4564820.000 -2245.000
21570150.000 4564880.000 -2295.000
21570500.000 4564787.500 -2586.250
21571300.000 4565100.000 -2750.000
21571000.000 4565480.000 -2457.500
21570500.000 4565160.000 -2470.000
21571400.000 4565212.500 -2875.000
21571700.000 4565550.000 -3250.000
21571600.000 4565277.500 -3038.750
21571900.000 4565455.000 -3327.500
21572200.000 4565632.500 -3616.250
21572500.000 4565810.000 -3905.000
21571600.000 4565675.000 -2847.500
21572550.000 4565907.500 -3816.250
21572450.000 4566037.500 -3475.000
21572725.000 4565970.000 -3976.250
21572950.000 4566130.000 -4047.500
21573175.000 4566290.000 -4118.750
21573400.000 4566450.000 -4190.000
21573325.000 4566515.000 -3721.250
21572800.000 4566327.500 -3241.250
21574600.000 4567040.000 -3735.000
21574675.000 4567350.000 -2588.750
21574800.000 4567010.000 -4453.750
21575500.000 4567330.000 -4257.500
21576550.000 4567770.000 -4291.250
21576200.000 4567570.000 -4717.500
21577600.000 4568130.000 -4981.250
21576725.000 4569025.000 -3646.250
21578050.000 4568620.000 -4520.000
21578010.000 4569052.000 -5000.000
21577699.531 4568169.809 -5000.000
21578678.969 4568666.344 -5000.000
21578718.359 4568745.570 -5000.000
21578764.703 4568850.000 -5000.000
21578500.000 4569030.000 -4730.000
21578153.844 4569120.000 -5000.000
21578887.250 4569053.664 -5000.000
21578934.367 4569129.707 -5000.000
21578974.328 4569194.188 -5000.000
21578857.953 4569183.410 -5000.000
21578242.859 4569126.430 -5000.000
21577896.188 4569149.008 -5000.000
21577954.406 4569202.367 -5000.000
21577575.000 4569555.000 -4001.250
21576650.000 4569355.000 -2977.500
21578132.938 4569365.715 -5000.000
21578475.000 4569895.000 -4691.250
21578125.000 4570005.000 -4103.750
21578686.766 4569854.340 -5000.000
21578842.891 4570002.539 -5000.000
21578905.984 4570054.020 -5000.000
21578950.000 4570195.000 -4812.500
21578500.000 4570352.500 -4048.750
21579149.250 4570243.023 -5000.000
21579203.164 4570288.355 -5000.000
21579388.086 4570443.832 -5000.000
21579400.000 4570610.000 -4755.000
21579531.922 4570564.770 -5000.000
21579250.000 4570630.000 -4487.500
21579100.000 4570650.000 -4220.000
21578600.000 4570465.000 -3927.500
[...]
POINT_DATA 739
COLOR_SCALARS GocadColor 4
0 0.392157 0 1
0 0.392157 0 1
0 0.392157 0 1
0 0.392157 0 1
0 0.392157 0 1
0 0.392157 0 1
0 0.392157 0 1
0 0.392157 0 1
0 0.392157 0 1
0 0.392157 0 1
0 0.392157 0 1
0 0.392157 0 1
0 0.392157 0 1
0 0.392157 0 1
0 0.392157 0 1
0 0.392157 0 1
0 0.392157 0 1
0 0.392157 0 1
0 0.392157 0 1
0 0.392157 0 1
0 0.392157 0 1
0 0.392157 0 1
0 0.392157 0 1
0 0.392157 0 1
0 0.392157 0 1
0 0.392157 0 1
0 0.392157 0 1
0 0.392157 0 1
0 0.392157 0 1
0 0.392157 0 1
0 0.392157 0 1
0 0.392157 0 1
0 0.392157 0 1
0 0.392157 0 1
0 0.392157 0 1
0 0.392157 0 1
0 0.392157 0 1
0 0.392157 0 1
0 0.392157 0 1
0 0.392157 0 1
0 0.392157 0 1
0 0.392157 0 1
0 0.392157 0 1
0 0.392157 0 1
0 0.392157 0 1
0 0.392157 0 1
0 0.392157 0 1
0 0.392157 0 1
0 0.392157 0 1
0 0.392157 0 1
0 0.392157 0 1
0 0.392157 0 1
0 0.392157 0 1
0 0.392157 0 1
0 0.392157 0 1
0 0.392157 0 1
0 0.392157 0 1
0 0.392157 0 1
0 0.392157 0 1
0 0.392157 0 1
0 0.392157 0 1
0 0.392157 0 1
0 0.392157 0 1
0 0.392157 0 1
0 0.392157 0 1
0 0.392157 0 1
0 0.392157 0 1
0 0.392157 0 1
0 0.392157 0 1
0 0.392157 0 1
0 0.392157 0 1
0 0.392157 0 1
0 0.392157 0 1
0 0.392157 0 1
0 0.392157 0 1
0 0.392157 0 1
0 0.392157 0 1
0 0.392157 0 1
0 0.392157 0 1
0 0.392157 0 1
0 0.392157 0 1
0 0.392157 0 1
0 0.392157 0 1
0 0.392157 0 1
0 0.392157 0 1
0 0.392157 0 1
0 0.392157 0 1
0 0.392157 0 1
0 0.392157 0 1
0 0.392157 0 1
0 0.392157 0 1
0 0.392157 0 1
0 0.392157 0 1
0 0.392157 0 1
0 0.392157 0 1
0 0.392157 0 1
0 0.392157 0 1
0 0.392157 0 1
0 0.392157 0 1
0 0.392157 0 1
0 0.392157 0 1
0 0.392157 0 1
0 0.392157 0 1
0 0.392157 0 1
0 0.392157 0 1
0 0.392157 0 1
0 0.392157 0 1
0 0.392157 0 1
0 0.392157 0 1
0 0.392157 0 1
0 0.392157 0 1
0 0.392157 0 1
0 0.392157 0 1
0 0.392157 0 1
0 0.392157 0 1
0 0.392157 0 1
0 0.392157 0 1
0 0.392157 0 1
0 0.392157 0 1
0 0.392157 0 1
0 0.392157 0 1
0 0.392157 0 1
0 0.392157 0 1
0 0.392157 0 1
0 0.392157 0 1
0 0.392157 0 1
0 0.392157 0 1
0 0.392157 0 1
0 0.392157 0 1
0 0.392157 0 1
0 0.392157 0 1
0 0.392157 0 1
0 0.392157 0 1
0 0.392157 0 1
0 0.392157 0 1
0 0.392157 0 1
0 0.392157 0 1
0 0.392157 0 1
0 0.392157 0 1
0 0.392157 0 1
0 0.392157 0 1
0 0.392157 0 1
0 0.392157 0 1
0 0.392157 0 1
0 0.392157 0 1
0 0.392157 0 1
0 0.392157 0 1
0 0.392157 0 1
0 0.392157 0 1
0 0.392157 0 1
0 0.392157 0 1
0 0.392157 0 1
0 0.392157 0 1
0 0.392157 0 1
0 0.392157 0 1
0 0.392157 0 1
0 0.392157 0 1
0 0.392157 0 1
0 0.392157 0 1
0 0.392157 0 1
0 0.392157 0 1
0 0.392157 0 1
0 0.392157 0 1
0 0.392157 0 1
0 0.392157 0 1
0 0.392157 0 1
0 0.392157 0 1
0 0.392157 0 1
0 0.392157 0 1
0 0.392157 0 1
0 0.392157 0 1
0 0.392157 0 1
0 0.392157 0 1
0 0.392157 0 1
0 0.392157 0 1
0 0.392157 0 1
0 0.392157 0 1
0 0.392157 0 1
0 0.392157 0 1
0 0.392157 0 1
0 0.392157 0 1
0 0.392157 0 1
0 0.392157 0 1
0 0.392157 0 1
0 0.392157 0 1
0 0.392157 0 1
0 0.392157 0 1
0 0.392157 0 1
0 0.392157 0 1
0 0.392157 0 1
0 0.392157 0 1
0 0.392157 0 1
0 0.392157 0 1
0 0.392157 0 1
0 0.392157 0 1
0 0.392157 0 1
0 0.392157 0 1
0 0.392157 0 1
0 0.392157 0 1
0 0.392157 0 1
0 0.392157 0 1
0 0.392157 0 1
0 0.392157 0 1
0 0.392157 0 1
0 0.392157 0 1
0 0.392157 0 1
0 0.392157 0 1
0 0.392157 0 1
0 0.392157 0 1
0 0.392157 0 1
0 0.392157 0 1
0 0.392157 0 1
0 0.392157 0 1
0 0.392157 0 1
0 0.392157 0 1
0 0.392157 0 1
0 0.392157 0 1
0 0.392157 0 1
0 0.392157 0 1
0 0.392157 0 1
0 0.392157 0 1
0 0.392157 0 1
0 0.392157 0 1
0 0.392157 0 1
0 0.392157 0 1
0 0.392157 0 1
0 0.392157 0 1
0 0.392157 0 1
0 0.392157 0 1
0 0.392157 0 1
0 0.392157 0 1
0 0.392157 0 1
0 0.392157 0 1
0 0.392157 0 1
0 0.392157 0 1
0 0.392157 0 1
0 0.392157 0 1
0 0.392157 0 1
0 0.392157 0 1
0 0.392157 0 1
0 0.392157 0 1
0 0.392157 0 1
0 0.392157 0 1
0 0.392157 0 1
0 0.392157 0 1
0 0.392157 0 1
0 0.392157 0 1
0 0.392157 0 1
0 0.392157 0 1
0 0.392157 0 1
0 0.392157 0 1
0 0.392157 0 1
0 0.392157 0 1
0 0.392157 0 1
0 0.392157 0 1
0 0.392157 0 1
0 0.392157 0 1
0 0.392157 0 1
0 0.392157 0 1
0 0.392157 0 1
0 0.392157 0 1
0 0.392157 0 1
0 0.392157 0 1
0 0.392157 0 1
0 0.392157 0 1
0 0.392157 0 1
0 0.392157 0 1
0 0.392157 0 1
0 0.392157 0 1
0 0.392157 0 1
0 0.392157 0 1
0 0.392157 0 1
0 0.392157 0 1
0 0.392157 0 1
0 0.392157 0 1
0 0.392157 0 1
0 0.392157 0 1
0 0.392157 0 1
0 0.392157 0 1
0 0.392157 0 1
0 0.392157 0 1
0 0.392157 0 1
0 0.392157 0 1
0 0.392157 0 1
0 0.392157 0 1
0 0.392157 0 1
0 0.392157 0 1
0 0.392157 0 1
0 0.392157 0 1
0 0.392157 0 1
0 0.392157 0 1
0 0.392157 0 1
0 0.392157 0 1
0 0.392157 0 1
0 0.392157 0 1
0 0.392157 0 1
0 0.392157 0 1
0 0.392157 0 1
0 0.392157 0 1
0 0.392157 0 1
0 0.392157 0 1
0 0.392157 0 1
0 0.392157 0 1
0 0.392157 0 1
0 0.392157 0 1
0 0.392157 0 1
0 0.392157 0 1
0 0.392157 0 1
0 0.392157 0 1
0 0.392157 0 1
0 0.392157 0 1
0 0.392157 0 1
0 0.392157 0 1
0 0.392157 0 1
0 0.392157 0 1
0 0.392157 0 1
0 0.392157 0 1
0 0.392157 0 1
0 0.392157 0 1
0 0.392157 0 1
0 0.392157 0 1
0 0.392157 0 1
0 0.392157 0 1
0 0.392157 0 1
0 0.392157 0 1
0 0.392157 0 1
0 0.392157 0 1
0 0.392157 0 1
0 0.392157 0 1
0 0.392157 0 1
0 0.392157 0 1
0 0.392157 0 1
0 0.392157 0 1
0 0.392157 0 1
0 0.392157 0 1
0 0.392157 0 1
0 0.392157 0 1
0 0.392157 0 1
0 0.392157 0 1
0 0.392157 0 1
0 0.392157 0 1
0 0.392157 0 1
0 0.392157 0 1
0 0.392157 0 1
0 0.392157 0 1
0 0.392157 0 1
0 0.392157 0 1
0 0.392157 0 1
0 0.392157 0 1
0 0.392157 0 1
0 0.392157 0 1
0 0.392157 0 1
0 0.392157 0 1
0 0.392157 0 1
0 0.392157 0 1
0 0.392157 0 1
0 0.392157 0 1
0 0.392157 0 1
0 0.392157 0 1
0 0.392157 0 1
0 0.392157 0 1
0 0.392157 0 1
0 0.392157 0 1
0 0.392157 0 1
0 0.392157 0 1
0 0.392157 0 1
0 0.392157 0 1
0 0.392157 0 1
0 0.392157 0 1
0 0.392157 0 1
0 0.392157 0 1
0 0.392157 0 1
0 0.392157 0 1
0 0.392157 0 1
0 0.392157 0 1
0 0.392157 0 1
0 0.392157 0 1
0 0.392157 0 1
0 0.392157 0 1
0 0.392157 0 1
0 0.392157 0 1
0 0.392157 0 1
0 0.392157 0 1
0 0.392157 0 1
0 0.392157 0 1
0 0.392157 0 1
0 0.392157 0 1
0 0.392157 0 1
0 0.392157 0 1
0 0.392157 0 1
0 0.392157 0 1
0 0.392157 0 1
0 0.392157 0 1
0 0.392157 0 1
0 0.392157 0 1
0 0.392157 0 1
0 0.392157 0 1
0 0.392157 0 1
0 0.392157 0 1
0 0.392157 0 1
0 0.392157 0 1
0 0.392157 0 1
0 0.392157 0 1
0 0.392157 0 1
0 0.392157 0 1
0 0.392157 0 1
0 0.392157 0 1
0 0.392157 0 1
0 0.392157 0 1
0 0.392157 0 1
0 0.392157 0 1
0 0.392157 0 1
0 0.392157 0 1
0 0.392157 0 1
0 0.392157 0 1
0 0.392157 0 1
0 0.392157 0 1
0 0.392157 0 1
0 0.392157 0 1
0 0.392157 0 1
0 0.392157 0 1
0 0.392157 0 1
0 0.392157 0 1
0 0.392157 0 1
0 0.392157 0 1
0 0.392157 0 1
0 0.392157 0 1
0 0.392157 0 1
0 0.392157 0 1
0 0.392157 0 1
0 0.392157 0 1
0 0.392157 0 1
0 0.392157 0 1
0 0.392157 0 1
0 0.392157 0 1
0 0.392157 0 1
0 0.392157 0 1
0 0.392157 0 1
0 0.392157 0 1
0 0.392157 0 1
0 0.392157 0 1
0 0.392157 0 1
0 0.392157 0 1
0 0.392157 0 1
0 0.392157 0 1
0 0.392157 0 1
0 0.392157 0 1
0 0.392157 0 1
0 0.392157 0 1
0 0.392157 0 1
0 0.392157 0 1
0 0.392157 0 1
0 0.392157 0 1
0 0.392157 0 1
0 0.392157 0 1
0 0.392157 0 1
0 0.392157 0 1
0 0.392157 0 1
0 0.392157 0 1
0 0.392157 0 1
0 0.392157 0 1
0 0.392157 0 1
0 0.392157 0 1
0 0.392157 0 1
0 0.392157 0 1
0 0.392157 0 1
0 0.392157 0 1
0 0.392157 0 1
0 0.392157 0 1
0 0.392157 0 1
0 0.392157 0 1
0 0.392157 0 1
0 0.392157 0 1
0 0.392157 0 1
0 0.392157 0 1
0 0.392157 0 1
0 0.392157 0 1
0 0.392157 0 1
0 0.392157 0 1
0 0.392157 0 1
0 0.392157 0 1
0 0.392157 0 1
0 0.392157 0 1
0 0.392157 0 1
0 0.392157 0 1
0 0.392157 0 1
0 0.392157 0 1
0 0.392157 0 1
0 0.392157 0 1
0 0.392157 0 1
0 0.392157 0 1
0 0.392157 0 1
0 0.392157 0 1
0 0.392157 0 1
0 0.392157 0 1
0 0.392157 0 1
0 0.392157 0 1
0 0.392157 0 1
0 0.392157 0 1
0 0.392157 0 1
0 0.392157 0 1
0 0.392157 0 1
0 0.392157 0 1
0 0.392157 0 1
0 0.392157 0 1
0 0.392157 0 1
0 0.392157 0 1
0 0.392157 0 1
0 0.392157 0 1
0 0.392157 0 1
0 0.392157 0 1
0 0.392157 0 1
0 0.392157 0 1
0 0.392157 0 1
0 0.392157 0 1
0 0.392157 0 1
0 0.392157 0 1
0 0.392157 0 1
0 0.392157 0 1
0 0.392157 0 1
0 0.392157 0 1
0 0.392157 0 1
0 0.392157 0 1
0 0.392157 0 1
0 0.392157 0 1
0 0.392157 0 1
0 0.392157 0 1
0 0.392157 0 1
0 0.392157 0 1
0 0.392157 0 1
0 0.392157 0 1
0 0.392157 0 1
0 0.392157 0 1
0 0.392157 0 1
0 0.392157 0 1
0 0.392157 0 1
0 0.392157 0 1
0 0.392157 0 1
0 0.392157 0 1
0 0.392157 0 1
0 0.392157 0 1
0 0.392157 0 1
0 0.392157 0 1
0 0.392157 0 1
0 0.392157 0 1
0 0.392157 0 1
0 0.392157 0 1
0 0.392157 0 1
0 0.392157 0 1
0 0.392157 0 1
0 0.392157 0 1
0 0.392157 0 1
0 0.392157 0 1
0 0.392157 0 1
0 0.392157 0 1
0 0.392157 0 1
0 0.392157 0 1
0 0.392157 0 1
0 0.392157 0 1
0 0.392157 0 1
0 0.392157 0 1
0 0.392157 0 1
0 0.392157 0 1
0 0.392157 0 1
0 0.392157 0 1
0 0.392157 0 1
0 0.392157 0 1
0 0.392157 0 1
0 0.392157 0 1
0 0.392157 0 1
0 0.392157 0 1
0 0.392157 0 1
0 0.392157 0 1
0 0.392157 0 1
0 0.392157 0 1
0 0.392157 0 1
0 0.392157 0 1
0 0.392157 0 1
0 0.392157 0 1
0 0.392157 0 1
0 0.392157 0 1
0 0.392157 0 1
0 0.392157 0 1
0 0.392157 0 1
0 0.392157 0 1
0 0.392157 0 1
0 0.392157 0 1
0 0.392157 0 1
0 0.392157 0 1
0 0.392157 0 1
0 0.392157 0 1
0 0.392157 0 1
0 0.392157 0 1
0 0.392157 0 1
0 0.392157 0 1
0 0.392157 0 1
0 0.392157 0 1
0 0.392157 0 1
0 0.392157 0 1
0 0.392157 0 1
0 0.392157 0 1
0 0.392157 0 1
0 0.392157 0 1
0 0.392157 0 1
0 0.392157 0 1
0 0.392157 0 1
0 0.392157 0 1
0 0.392157 0 1
0 0.392157 0 1
0 0.392157 0 1
0 0.392157 0 1
0 0.392157 0 1
0 0.392157 0 1
0 0.392157 0 1
0 0.392157 0 1
0 0.392157 0 1
0 0.392157 0 1
0 0.392157 0 1
0 0.392157 0 1
0 0.392157 0 1
0 0.392157 0 1
0 0.392157 0 1
0 0.392157 0 1
0 0.392157 0 1
0 0.392157 0 1
0 0.392157 0 1
0 0.392157 0 1
0 0.392157 0 1
0 0.392157 0 1
0 0.392157 0 1
0 0.392157 0 1
0 0.392157 0 1
0 0.392157 0 1
0 0.392157 0 1
0 0.392157 0 1
0 0.392157 0 1
0 0.392157 0 1
0 0.392157 0 1
0 0.392157 0 1
0 0.392157 0 1
0 0.392157 0 1
0 0.392157 0 1
0 0.392157 0 1
0 0.392157 0 1
0 0.392157 0 1
0 0.392157 0 1
0 0.392157 0 1
0 0.392157 0 1
0 0.392157 0 1
0 0.392157 0 1
0 0.392157 0 1
0 0.392157 0 1
0 0.392157 0 1
0 0.392157 0 1
0 0.392157 0 1
0 0.392157 0 1
0 0.392157 0 1
0 0.392157 0 1
0 0.392157 0 1
0 0.392157 0 1
0 0.392157 0 1
0 0.392157 0 1
0 0.392157 0 1
0 0.392157 0 1
0 0.392157 0 1
0 0.392157 0 1
0 0.392157 0 1
0 0.392157 0 1
0 0.392157 0 1
0 0.392157 0 1
0 0.392157 0 1
0 0.392157 0 1
0 0.392157 0 1
0 0.392157 0 1
0 0.392157 0 1
0 0.392157 0 1
0 0.392157 0 1
0 0.392157 0 1
0 0.392157 0 1
0 0.392157 0 1
0 0.392157 0 1
0 0.392157 0 1
0 0.392157 0 1
0 0.392157 0 1
0 0.392157 0 1
0 0.392157 0 1
0 0.392157 0 1
0 0.392157 0 1
0 0.392157 0 1
0 0.392157 0 1
0 0.392157 0 1
0 0.392157 0 1
0 0.392157 0 1
0 0.392157 0 1
0 0.392157 0 1
0 0.392157 0 1
0 0.392157 0 1
0 0.392157 0 1
0 0.392157 0 1
0 0.392157 0 1
0 0.392157 0 1
0 0.392157 0 1
0 0.392157 0 1
0 0.392157 0 1
0 0.392157 0 1
0 0.392157 0 1
0 0.392157 0 1
0 0.392157 0 1
0 0.392157 0 1
0 0.392157 0 1
0 0.392157 0 1
0 0.392157 0 1
0 0.392157 0 1
0 0.392157 0 1
0 0.392157 0 1
0 0.392157 0 1
0 0.392157 0 1
0 0.392157 0 1
0 0.392157 0 1
0 0.392157 0 1
0 0.392157 0 1
0 0.392157 0 1
0 0.392157 0 1
0 0.392157 0 1
0 0.392157 0 1
0 0.392157 0 1
0 0.392157 0 1
0 0.392157 0 1
0 0.392157 0 1
0 0.392157 0 1
0 0.392157 0 1
0 0.392157 0 1
0 0.392157 0 1
0 0.392157 0 1
0 0.392157 0 1
0 0.392157 0 1
0 0.392157 0 1
0 0.392157 0 1
0 0.392157 0 1

