# vtk DataFile Version 3.0
Gocad TSurf to VTK
ASCII
DATASET POLYDATA
POINTS 355 float
21606850.000 4571985.000 -2295.000
21606825.000 4572142.500 -2277.500
21607800.000 4572517.500 -1775.000
21606800.000 4572300.000 -2260.000
21607200.000 4571952.500 -2145.000
21608925.000 4572567.500 -1413.750
21606875.000 4571827.500 -2312.500
21606900.000 4571670.000 -2330.000
21609325.000 4572352.500 -1337.500
21608375.000 4571650.000 -1718.750
21609450.000 4572215.000 -1320.000
21607200.000 4571595.000 -2207.500
21608100.000 4571370.000 -1840.000
21606875.000 4571482.500 -2302.500
21606850.000 4571295.000 -2275.000
21606825.000 4571107.500 -2247.500
21606800.000 4570920.000 -2220.000
21607650.000 4570970.000 -1995.000
21608250.000 4570972.500 -1716.250
21606900.000 4570832.500 -2202.500
21607000.000 4570745.000 -2185.000
21607100.000 4570657.500 -2167.500
21607200.000 4570570.000 -2150.000
21608300.000 4570840.000 -1675.000
21607450.000 4570460.000 -2045.000
21608200.000 4570130.000 -1730.000
21607250.000 4570415.000 -2132.500
21607300.000 4570260.000 -2115.000
21607350.000 4570105.000 -2097.500
21607400.000 4569950.000 -2080.000
21608100.000 4569947.500 -1730.000
21608200.000 4569820.000 -1652.500
21607500.000 4569812.500 -1992.500
21608000.000 4569765.000 -1730.000
21607600.000 4569675.000 -1905.000
21607900.000 4569582.500 -1730.000
21607700.000 4569537.500 -1817.500
21607800.000 4569400.000 -1730.000
21608200.000 4569510.000 -1575.000
21610000.000 4570100.000 -1017.500
21608800.000 4570120.000 -1492.500
21610600.000 4570090.000 -780.000
21610625.000 4570245.000 -731.250
21610650.000 4570400.000 -682.500
21610675.000 4570555.000 -633.750
21610700.000 4570710.000 -585.000
21610100.000 4570742.500 -857.500
21610725.000 4570897.500 -581.250
21610750.000 4571085.000 -577.500
21610775.000 4571272.500 -573.750
21610800.000 4571460.000 -570.000
21610525.000 4571580.000 -748.750
21609700.000 4571940.000 -1285.000
21610800.000 4572105.000 -750.000
21610800.000 4572320.000 -810.000
21610400.000 4572362.500 -946.250
21610800.000 4572505.000 -751.250
21610800.000 4572690.000 -692.500
21610800.000 4572505.000 -751.250
21609600.000 4572447.500 -1218.750
21610800.000 4572875.000 -633.750
21610800.000 4573060.000 -575.000
21609575.000 4572802.500 -1103.750
21610775.000 4573230.000 -518.750
21609950.000 4573115.000 -852.500
21610750.000 4573400.000 -462.500
21610725.000 4573570.000 -406.250
21610700.000 4573740.000 -350.000
21608725.000 4573135.000 -1311.250
21610675.000 4573840.000 -381.250
21609350.000 4573470.000 -1032.500
21607425.000 4573100.000 -1863.750
21610650.000 4573940.000 -412.500
21610625.000 4574040.000 -443.750
21610600.000 4574140.000 -475.000
21607200.000 4573200.000 -1955.000
21610100.000 4574122.500 -820.000
21608250.000 4573852.500 -1880.000
21610675.000 4574365.000 -546.250
21610700.000 4574440.000 -570.000
21609500.000 4574450.000 -1212.500
21610625.000 4574537.500 -570.000
21609950.000 4574640.000 -891.250
21610625.000 4574535.000 -570.000
21610550.000 4574630.000 -570.000
21610475.000 4574725.000 -570.000
21610400.000 4574820.000 -570.000
21609950.000 4574912.500 -891.250
21608500.000 4575020.000 -1890.000
21610375.000 4574922.500 -581.250
21610350.000 4575025.000 -592.500
21610325.000 4575127.500 -603.750
21609050.000 4575077.500 -1533.750
21610300.000 4575230.000 -615.000
21608600.000 4575160.000 -1855.000
21607750.000 4574990.000 -2205.000
21609850.000 4575362.500 -800.000
21608950.000 4575627.500 -1170.000
21610225.000 4575612.500 -487.500
21610200.000 4575740.000 -445.000
21609350.000 4575970.000 -962.500
21610200.000 4575960.000 -507.500
21608475.000 4575892.500 -1421.250
21608475.000 4576942.500 -1650.000
21608050.000 4575440.000 -1815.000
21607500.000 4576050.000 -1820.000
21607600.000 4575120.000 -2275.000
21606650.000 4574735.000 -2567.500
21608400.000 4574335.000 -1925.000
21606100.000 4575405.000 -2420.000
21606450.000 4575592.500 -2172.500
21605400.000 4575030.000 -2915.000
21605400.000 4575220.000 -2831.250
21605475.000 4574860.000 -2901.250
21605550.000 4574690.000 -2887.500
21605625.000 4574520.000 -2873.750
21605700.000 4574350.000 -2860.000
21606150.000 4574230.000 -2727.500
21607050.000 4573455.000 -2267.500
21605750.000 4574162.500 -2908.750
21605800.000 4573970.000 -2965.000
21605850.000 4573780.000 -3017.500
21605900.000 4573600.000 -3055.000
21605900.000 4573590.000 -3070.000
21606075.000 4573452.500 -2853.750
21606250.000 4573315.000 -2637.500
21606425.000 4573177.500 -2421.250
21606825.000 4573247.500 -2236.250
21606600.000 4573040.000 -2205.000
21607100.000 4572975.000 -2031.250
21606650.000 4572855.000 -2218.750
21607000.000 4572750.000 -2107.500
21606700.000 4572670.000 -2232.500
21606750.000 4572485.000 -2246.250
21605400.000 4575410.000 -2747.500
21605400.000 4575600.000 -2663.750
21605400.000 4575790.000 -2580.000
21605800.000 4576105.000 -2427.500
21605375.000 4575962.500 -2608.750
21606500.000 4576100.000 -2100.000
21606000.000 4576262.500 -2351.250
21606875.000 4575940.000 -1907.500
21608050.000 4576530.000 -1806.250
21607925.000 4576975.000 -1813.750
21608500.000 4577160.000 -1660.000
21607350.000 4576790.000 -1967.500
21606775.000 4576605.000 -2121.250
21605825.000 4577312.500 -2305.000
21605950.000 4577015.000 -2295.000
21605700.000 4577610.000 -2315.000
21605600.000 4577327.500 -2410.000
21605500.000 4577045.000 -2505.000
21605400.000 4576762.500 -2600.000
21605300.000 4576480.000 -2695.000
21605325.000 4576307.500 -2666.250
21605350.000 4576135.000 -2637.500
21606025.000 4577732.500 -2217.500
21605875.000 4577750.000 -2266.250
21608175.000 4577387.500 -1716.250
21606825.000 4577955.000 -1992.500
21608350.000 4577362.500 -1708.750
21608200.000 4577565.000 -1757.500
21608625.000 4577327.500 -1681.250
21608500.000 4577707.500 -1795.000
21609250.000 4577430.000 -1512.500
21608975.000 4577972.500 -1846.250
21610200.000 4576900.000 -975.000
21610050.000 4577500.000 -1267.500
21610200.000 4576720.000 -873.750
21610200.000 4576360.000 -671.250
21610200.000 4576180.000 -570.000
21609300.000 4576595.000 -1297.500
21610200.000 4576070.000 -538.750
21610200.000 4575960.000 -507.500
21609625.000 4577565.000 -1438.750
21610000.000 4577700.000 -1365.000
21609450.000 4578010.000 -1737.500
21608900.000 4578400.000 -2150.000
21609900.000 4578190.000 -1730.000
21609925.000 4578067.500 -1638.750
21609825.000 4578370.000 -1831.250
21609075.000 4578527.500 -2146.250
21609950.000 4578337.500 -1782.500
21610000.000 4578485.000 -1835.000
21609950.000 4578337.500 -1782.500
21609750.000 4578550.000 -1932.500
21610050.000 4578632.500 -1887.500
21609425.000 4578782.500 -2138.750
21608825.000 4578947.500 -2307.500
21609600.000 4578910.000 -2135.000
21610100.000 4578780.000 -1940.000
21608800.000 4579130.000 -2360.000
21609350.000 4579390.000 -2280.000
21609800.000 4579330.000 -2135.000
21608700.000 4579560.000 -2400.000
21608600.000 4579385.000 -2372.500
21609050.000 4580412.500 -2245.000
21610000.000 4579750.000 -2135.000
21608700.000 4580260.000 -2295.000
21608600.000 4580435.000 -2215.000
21608100.000 4579845.000 -2402.500
21608400.000 4579600.000 -2372.500
21608225.000 4580152.500 -2330.000
21607650.000 4579587.500 -2395.000
21608400.000 4580300.000 -2267.500
21608150.000 4580315.000 -2260.000
21608450.000 4580455.000 -2201.250
21608075.000 4580175.000 -2360.000
21607950.000 4580180.000 -2395.000
21608050.000 4580330.000 -2280.000
21607950.000 4580335.000 -2295.000
21608075.000 4580477.500 -2190.000
21607800.000 4580650.000 -2150.000
21607875.000 4580492.500 -2222.500
21608225.000 4580937.500 -2106.250
21607850.000 4580952.500 -2211.250
21608600.000 4580915.000 -2117.500
21609100.000 4580580.000 -2175.000
21608450.000 4581235.000 -2092.500
21608200.000 4581245.000 -2162.500
21608700.000 4581220.000 -2100.000
21608675.000 4581532.500 -2078.750
21609050.000 4580892.500 -2147.500
21609000.000 4581205.000 -2120.000
21608950.000 4581517.500 -2092.500
21609200.000 4581245.000 -2155.000
21609550.000 4581260.000 -2167.500
21609350.000 4581572.500 -2145.000
21608900.000 4581830.000 -2065.000
21609575.000 4581610.000 -2163.750
21609300.000 4581910.000 -2135.000
21609950.000 4581240.000 -2050.000
21610375.000 4581712.500 -1970.000
21609525.000 4580910.000 -2171.250
21610125.000 4580880.000 -1995.000
21609500.000 4580560.000 -2175.000
21610350.000 4581315.000 -1960.000
21610350.000 4581315.000 -1960.000
21610300.000 4580520.000 -1940.000
21610225.000 4580327.500 -1988.750
21609875.000 4579952.500 -2145.000
21610225.000 4580327.500 -1988.750
21610400.000 4582110.000 -1980.000
21609800.000 4582345.000 -1902.500
21610300.000 4582265.000 -1896.250
21609825.000 4582525.000 -1767.500
21610375.000 4582275.000 -1878.750
21610350.000 4582440.000 -1777.500
21610325.000 4582605.000 -1676.250
21610100.000 4582575.000 -1728.750
21610300.000 4582770.000 -1575.000
21610000.000 4582730.000 -1645.000
21609725.000 4582505.000 -1750.000
21609450.000 4582280.000 -1855.000
21609475.000 4582115.000 -2012.500
21609175.000 4582055.000 -1960.000
21608550.000 4581537.500 -2113.750
21607500.000 4580660.000 -2260.000
21607650.000 4580500.000 -2305.000
21607425.000 4580532.500 -2353.750
21607425.000 4580532.500 -2357.500
21607350.000 4580405.000 -2447.500
21607800.000 4580340.000 -2350.000
21607275.000 4580277.500 -2552.500
21607200.000 4580150.000 -2635.000
21607200.000 4580150.000 -2650.000
21607100.000 4580030.000 -2642.500
21606800.000 4579670.000 -2665.000
21606900.000 4579790.000 -2661.250
21607800.000 4579400.000 -2315.000
21607875.000 4579555.000 -2346.250
21607300.000 4579115.000 -2455.000
21607800.000 4579202.500 -2297.500
21606800.000 4579460.000 -2647.500
21606800.000 4579250.000 -2630.000
21607050.000 4578972.500 -2525.000
21607650.000 4578845.000 -2303.750
21606800.000 4579040.000 -2612.500
21606800.000 4578830.000 -2595.000
21607600.000 4578660.000 -2300.000
21606850.000 4578647.500 -2427.500
21607000.000 4578100.000 -1925.000
21606700.000 4578665.000 -2476.250
21606600.000 4578500.000 -2357.500
21606500.000 4578335.000 -2238.750
21606400.000 4578170.000 -2120.000
21607525.000 4577842.500 -1828.750
21606225.000 4578030.000 -2168.750
21606050.000 4577890.000 -2217.500
21607900.000 4577970.000 -1855.000
21607850.000 4577615.000 -1772.500
21608700.000 4578145.000 -1995.000
21608150.000 4578235.000 -2022.500
21608400.000 4578500.000 -2190.000
21608875.000 4578582.500 -2202.500
21608425.000 4578677.500 -2228.750
21608600.000 4578815.000 -2275.000
21608450.000 4578855.000 -2267.500
21608700.000 4578972.500 -2317.500
21608475.000 4579032.500 -2306.250
21608500.000 4579210.000 -2345.000
21608175.000 4579115.000 -2265.000
21608325.000 4578705.000 -2215.000
21608100.000 4579320.000 -2290.000
21608025.000 4579142.500 -2278.750
21608450.000 4579405.000 -2358.750
21608150.000 4579487.500 -2317.500
21608200.000 4579655.000 -2345.000
21608100.000 4579670.000 -2365.000
21607950.000 4579710.000 -2377.500
21607800.000 4579005.000 -2280.000
21607950.000 4578965.000 -2267.500
21607800.000 4578807.500 -2262.500
21607800.000 4578610.000 -2245.000
21607000.000 4579910.000 -2657.500
21607100.000 4580030.000 -2653.750
21610025.000 4579507.500 -2086.250
21610050.000 4579265.000 -2037.500
21610075.000 4579022.500 -1988.750
21607875.000 4569272.500 -1761.250
21607950.000 4569145.000 -1792.500
21608125.000 4569045.000 -1785.000
21608025.000 4569017.500 -1823.750
21608175.000 4569355.000 -1645.000
21608400.000 4569255.000 -1645.000
21607800.000 4569400.000 -1730.000
21608200.000 4569510.000 -1575.000
21609350.000 4569465.000 -1372.500
21609925.000 4569442.500 -1271.250
21610600.000 4570090.000 -780.000
21610575.000 4569922.500 -877.500
21610550.000 4569922.500 -877.500
21610500.000 4569755.000 -975.000
21610525.000 4569587.500 -1072.500
21610450.000 4569587.500 -1072.500
21610400.000 4569420.000 -1170.000
21610175.000 4569195.000 -1187.500
21610400.000 4569260.000 -1125.000
21608600.000 4569000.000 -1715.000
21609050.000 4568640.000 -1358.750
21608100.000 4568890.000 -1855.000
21608275.000 4568762.500 -1736.250
21608700.000 4568690.000 -1547.500
21608450.000 4568635.000 -1617.500
21608750.000 4568535.000 -1463.750
21608800.000 4568380.000 -1380.000
21608625.000 4568507.500 -1498.750
21609200.000 4568520.000 -1240.000
21609525.000 4568745.000 -1222.500
21610100.000 4568780.000 -990.000
21610200.000 4568940.000 -1035.000
21610300.000 4569100.000 -1080.000
21610175.000 4568940.000 -1035.000
21610250.000 4569100.000 -1080.000
21610325.000 4569260.000 -1125.000

POLYGONS 547 2188
3 198 194 200
3 135 136 110
3 4 0 2
3 50 23 18
3 191 195 194
3 12 15 11
3 311 301 302
3 130 128 129
3 93 96 98
3 45 46 47
3 31 40 39
3 12 18 17
3 222 217 216
3 52 9 10
3 177 294 181
3 26 22 24
3 153 148 140
3 199 198 204
3 304 303 301
3 178 180 182
3 148 151 147
3 51 18 52
3 67 68 69
3 233 217 222
3 272 310 276
3 166 144 164
3 269 203 270
3 239 238 241
3 281 285 284
3 224 223 220
3 148 145 146
3 81 82 84
3 125 124 122
3 218 216 214
3 23 22 17
3 191 300 195
3 132 130 131
3 55 10 59
3 18 23 17
3 31 30 25
3 303 269 306
3 98 96 99
3 236 237 238
3 269 303 272
3 289 292 291
3 101 99 100
3 264 265 263
3 94 106 104
3 158 156 159
3 158 161 160
3 178 175 176
3 9 12 11
3 249 251 250
3 130 129 131
3 206 211 212
3 145 143 142
3 308 307 306
3 188 187 181
3 147 149 143
3 144 149 156
3 56 55 57
3 7 6 4
3 229 230 243
3 177 181 180
3 214 206 212
3 213 258 212
3 308 309 200
3 290 158 159
3 32 30 33
3 22 21 17
3 96 100 99
3 262 263 261
3 225 226 222
3 256 221 218
3 0 1 2
3 31 33 30
3 94 92 88
3 134 135 109
3 149 144 143
3 203 309 270
3 284 280 281
3 248 247 244
3 69 68 70
3 200 203 202
3 84 83 81
3 288 287 159
3 37 36 35
3 254 253 243
3 226 227 229
3 75 128 127
3 192 193 189
3 290 161 158
3 180 185 183
3 313 279 312
3 164 162 165
3 110 141 106
3 220 222 216
3 231 233 226
3 170 101 100
3 78 74 76
3 66 65 64
3 176 175 165
3 136 138 137
3 141 105 106
3 129 75 71
3 8 10 9
3 81 79 80
3 18 12 52
3 3 133 131
3 35 33 31
3 259 261 260
3 103 144 171
3 101 173 99
3 310 311 312
3 177 293 294
3 107 95 108
3 45 25 46
3 110 136 137
3 282 278 280
3 313 292 289
3 82 86 85
3 208 210 207
3 103 102 142
3 313 293 292
3 70 68 71
3 44 43 39
3 239 241 197
3 231 229 232
3 234 235 233
3 200 309 203
3 169 144 168
3 203 264 202
3 264 208 202
3 113 107 114
3 95 106 94
3 196 199 217
3 163 161 289
3 234 231 232
3 294 293 295
3 298 191 188
3 75 127 118
3 228 224 221
3 94 88 95
3 160 161 163
3 74 73 70
3 49 46 23
3 105 139 142
3 165 291 177
3 204 205 206
3 272 276 271
3 40 31 25
3 274 273 271
3 158 144 156
3 25 29 24
3 244 246 242
3 105 104 106
3 191 189 187
3 203 266 264
3 238 239 235
3 86 87 89
3 148 147 145
3 77 108 80
3 296 188 295
3 14 13 11
3 267 268 266
3 86 82 87
3 214 219 218
3 3 131 71
3 93 94 96
3 126 125 122
3 276 275 271
3 55 52 10
3 142 143 103
3 303 300 301
3 182 180 183
3 268 314 266
3 117 119 116
3 315 265 266
3 46 25 23
3 22 23 24
3 265 264 266
3 223 222 220
3 10 8 59
3 164 167 166
3 249 250 248
3 293 177 291
3 140 146 142
3 259 260 257
3 20 19 17
3 217 199 206
3 297 299 296
3 16 12 17
3 279 275 276
3 155 154 137
3 133 132 131
3 289 286 281
3 258 261 259
3 237 236 232
3 162 163 165
3 109 110 106
3 205 207 209
3 247 246 244
3 67 64 68
3 253 252 243
3 316 317 193
3 9 7 8
3 154 153 140
3 108 77 118
3 286 159 281
3 19 16 17
3 234 238 235
3 139 137 140
3 118 127 126
3 211 205 209
3 313 289 281
3 208 262 210
3 59 61 60
3 28 27 24
3 267 269 271
3 27 26 24
3 151 150 147
3 310 304 311
3 34 33 35
3 21 20 17
3 201 307 200
3 154 140 137
3 97 94 104
3 92 94 93
3 60 57 59
3 314 315 266
3 188 191 187
3 40 44 39
3 269 272 271
3 113 111 107
3 71 75 70
3 162 144 160
3 169 168 170
3 269 270 306
3 312 276 310
3 169 170 171
3 152 151 148
3 203 267 266
3 205 211 206
3 274 271 275
3 194 198 196
3 41 39 42
3 198 199 196
3 296 298 188
3 280 279 281
3 244 242 243
3 58 56 57
3 87 82 88
3 311 304 301
3 172 101 170
3 243 245 244
3 215 212 257
3 38 35 31
3 138 155 137
3 123 122 124
3 51 50 18
3 81 83 79
3 122 121 117
3 29 25 30
3 178 179 175
3 176 165 177
3 142 146 145
3 112 134 109
3 299 297 302
3 178 177 180
3 25 45 40
3 163 162 160
3 164 174 167
3 199 204 206
3 293 302 295
3 5 4 2
3 69 70 72
3 196 217 235
3 61 59 8
3 303 306 305
3 127 128 126
3 117 116 108
3 269 267 203
3 293 313 302
3 163 289 291
3 236 238 234
3 210 209 207
3 256 228 221
3 223 225 222
3 196 197 192
3 306 307 201
3 221 220 218
3 149 157 156
3 141 110 139
3 273 267 271
3 84 82 85
3 115 114 107
3 79 76 80
3 15 14 11
3 82 80 88
3 174 175 167
3 188 294 295
3 312 311 302
3 175 174 165
3 174 164 165
3 54 56 58
3 97 102 100
3 67 66 64
3 54 52 55
3 197 193 192
3 150 149 147
3 194 201 200
3 258 259 257
3 255 230 228
3 92 87 88
3 50 49 23
3 68 2 71
3 240 239 197
3 229 227 230
3 253 254 255
3 254 230 255
3 106 95 107
3 180 181 185
3 202 205 204
3 187 189 185
3 224 228 227
3 307 308 200
3 111 112 109
3 239 240 235
3 270 309 308
3 177 178 176
3 51 53 50
3 105 141 139
3 279 276 312
3 148 146 140
3 258 262 261
3 6 0 4
3 1 3 2
3 11 7 9
3 5 2 68
3 225 227 226
3 87 90 89
3 157 288 156
3 225 224 227
3 147 143 145
3 131 129 71
3 61 62 63
3 107 111 109
3 79 78 76
3 178 182 184
3 46 48 47
3 258 257 212
3 144 162 164
3 219 256 218
3 208 207 202
3 54 53 52
3 213 212 211
3 216 217 206
3 73 72 70
3 41 38 39
3 29 28 24
3 76 77 80
3 210 213 211
3 284 283 280
3 252 245 243
3 118 126 122
3 181 294 188
3 77 75 118
3 208 264 263
3 251 249 245
3 300 305 195
3 245 252 251
3 226 233 222
3 190 186 185
3 299 300 298
3 49 48 46
3 25 24 23
3 279 278 275
3 290 159 286
3 54 55 56
3 116 115 107
3 117 108 118
3 63 64 65
3 225 223 224
3 205 202 207
3 139 140 142
3 297 296 295
3 231 226 229
3 235 217 233
3 92 93 91
3 53 51 52
3 110 137 139
3 224 220 221
3 64 62 5
3 57 55 59
3 300 303 305
3 301 300 299
3 100 171 170
3 285 281 159
3 38 37 35
3 242 229 243
3 96 94 97
3 76 75 77
3 278 279 280
3 299 298 296
3 190 189 318
3 214 216 206
3 272 304 310
3 63 62 64
3 283 282 280
3 277 274 275
3 173 101 172
3 7 4 8
3 194 196 192
3 144 166 168
3 302 297 295
3 74 75 76
3 197 316 193
3 305 201 195
3 279 313 281
3 102 103 100
3 107 109 106
3 228 230 227
3 209 210 211
3 108 95 88
3 156 288 159
3 97 104 102
3 192 191 194
3 278 277 275
3 187 185 181
3 96 97 100
3 302 313 312
3 128 75 129
3 120 119 117
3 64 5 68
3 229 242 232
3 5 62 8
3 16 15 12
3 287 285 159
3 185 186 183
3 81 80 82
3 135 110 109
3 245 249 244
3 272 303 304
3 39 38 31
3 292 293 291
3 4 5 8
3 36 34 35
3 240 196 235
3 184 182 183
3 300 191 298
3 318 189 317
3 201 194 195
3 121 120 117
3 220 216 218
3 104 105 102
3 231 234 233
3 144 158 160
3 171 144 169
3 80 108 88
3 212 215 214
3 240 197 196
3 290 286 289
3 90 87 91
3 262 258 213
3 32 29 30
3 230 254 243
3 153 152 148
3 163 291 165
3 13 7 11
3 87 92 91
3 208 263 262
3 171 100 103
3 102 105 142
3 39 43 42
3 143 144 103
3 215 219 214
3 62 61 8
3 270 308 306
3 198 200 202
3 189 190 185
3 249 248 244
3 210 262 213
3 75 74 70
3 202 204 198
3 40 45 44
3 191 192 189
3 301 299 302
3 317 189 193
3 2 3 71
3 305 306 201
3 116 107 108
3 161 290 289
3 34 32 33
3 122 117 118
3 122 123 121
3 236 234 232
3 52 12 9
3 350 351 336
3 348 336 339
3 325 319 323
3 333 334 332
3 327 328 330
3 342 344 339
3 328 336 335
3 341 343 342
3 350 352 353
3 329 326 327
3 330 329 327
3 351 353 354
3 341 338 340
3 321 338 324
3 346 345 344
3 336 337 335
3 346 342 343
3 340 338 321
3 336 338 339
3 326 323 324
3 348 350 336
3 348 347 349
3 319 320 321
3 339 345 347
3 326 325 323
3 329 330 331
3 335 334 333
3 337 354 335
3 320 322 321
3 332 331 330
3 324 323 321
3 328 333 332
3 322 340 321
3 328 332 330
3 338 328 324
3 326 324 327
3 336 351 337
3 328 327 324
3 348 349 350
3 339 347 348
3 328 335 333
3 350 353 351
3 346 344 342
3 339 338 342
3 323 319 321
3 350 349 352
3 328 338 336
3 351 354 337
3 344 345 339
3 338 341 342

POINT_DATA 355
COLOR_SCALARS GocadColor 4
0.0930037 0.0930037 0.439216 1
0.0930037 0.0930037 0.439216 1
0.0930037 0.0930037 0.439216 1
0.0930037 0.0930037 0.439216 1
0.0930037 0.0930037 0.439216 1
0.0930037 0.0930037 0.439216 1
0.0930037 0.0930037 0.439216 1
0.0930037 0.0930037 0.439216 1
0.0930037 0.0930037 0.439216 1
0.0930037 0.0930037 0.439216 1
0.0930037 0.0930037 0.439216 1
0.0930037 0.0930037 0.439216 1
0.0930037 0.0930037 0.439216 1
0.0930037 0.0930037 0.439216 1
0.0930037 0.0930037 0.439216 1
0.0930037 0.0930037 0.439216 1
0.0930037 0.0930037 0.439216 1
0.0930037 0.0930037 0.439216 1
0.0930037 0.0930037 0.439216 1
0.0930037 0.0930037 0.439216 1
0.0930037 0.0930037 0.439216 1
0.0930037 0.0930037 0.439216 1
0.0930037 0.0930037 0.439216 1
0.0930037 0.0930037 0.439216 1
0.0930037 0.0930037 0.439216 1
0.0930037 0.0930037 0.439216 1
0.0930037 0.0930037 0.439216 1
0.0930037 0.0930037 0.439216 1
0.0930037 0.0930037 0.439216 1
0.0930037 0.0930037 0.439216 1
0.0930037 0.0930037 0.439216 1
0.0930037 0.0930037 0.439216 1
0.0930037 0.0930037 0.439216 1
0.0930037 0.0930037 0.439216 1
0.0930037 0.0930037 0.439216 1
0.0930037 0.0930037 0.439216 1
0.0930037 0.0930037 0.439216 1
0.0930037 0.0930037 0.439216 1
0.0930037 0.0930037 0.439216 1
0.0930037 0.0930037 0.439216 1
0.0930037 0.0930037 0.439216 1
0.0930037 0.0930037 0.439216 1
0.0930037 0.0930037 0.439216 1
0.0930037 0.0930037 0.439216 1
0.0930037 0.0930037 0.439216 1
0.0930037 0.0930037 0.439216 1
0.0930037 0.0930037 0.439216 1
0.0930037 0.0930037 0.439216 1
0.0930037 0.0930037 0.439216 1
0.0930037 0.0930037 0.439216 1
0.0930037 0.0930037 0.439216 1
0.0930037 0.0930037 0.439216 1
0.0930037 0.0930037 0.439216 1
0.0930037 0.0930037 0.439216 1
0.0930037 0.0930037 0.439216 1
0.0930037 0.0930037 0.439216 1
0.0930037 0.0930037 0.439216 1
0.0930037 0.0930037 0.439216 1
0.0930037 0.0930037 0.439216 1
0.0930037 0.0930037 0.439216 1
0.0930037 0.0930037 0.439216 1
0.0930037 0.0930037 0.439216 1
0.0930037 0.0930037 0.439216 1
0.0930037 0.0930037 0.439216 1
0.0930037 0.0930037 0.439216 1
0.0930037 0.0930037 0.439216 1
0.0930037 0.0930037 0.439216 1
0.0930037 0.0930037 0.439216 1
0.0930037 0.0930037 0.439216 1
0.0930037 0.0930037 0.439216 1
0.0930037 0.0930037 0.439216 1
0.0930037 0.0930037 0.439216 1
0.0930037 0.0930037 0.439216 1
0.0930037 0.0930037 0.439216 1
0.0930037 0.0930037 0.439216 1
0.0930037 0.0930037 0.439216 1
0.0930037 0.0930037 0.439216 1
0.0930037 0.0930037 0.439216 1
0.0930037 0.0930037 0.439216 1
0.0930037 0.0930037 0.439216 1
0.0930037 0.0930037 0.439216 1
0.0930037 0.0930037 0.439216 1
0.0930037 0.0930037 0.439216 1
0.0930037 0.0930037 0.439216 1
0.0930037 0.0930037 0.439216 1
0.0930037 0.0930037 0.439216 1
0.0930037 0.0930037 0.439216 1
0.0930037 0.0930037 0.439216 1
0.0930037 0.0930037 0.439216 1
0.0930037 0.0930037 0.439216 1
0.0930037 0.0930037 0.439216 1
0.0930037 0.0930037 0.439216 1
0.0930037 0.0930037 0.439216 1
0.0930037 0.0930037 0.439216 1
0.0930037 0.0930037 0.439216 1
0.0930037 0.0930037 0.439216 1
0.0930037 0.0930037 0.439216 1
0.0930037 0.0930037 0.439216 1
0.0930037 0.0930037 0.439216 1
0.0930037 0.0930037 0.439216 1
0.0930037 0.0930037 0.439216 1
0.0930037 0.0930037 0.439216 1
0.0930037 0.0930037 0.439216 1
0.0930037 0.0930037 0.439216 1
0.0930037 0.0930037 0.439216 1
0.0930037 0.0930037 0.439216 1
0.0930037 0.0930037 0.439216 1
0.0930037 0.0930037 0.439216 1
0.0930037 0.0930037 0.439216 1
0.0930037 0.0930037 0.439216 1
0.0930037 0.0930037 0.439216 1
0.0930037 0.0930037 0.439216 1
0.0930037 0.0930037 0.439216 1
0.0930037 0.0930037 0.439216 1
0.0930037 0.0930037 0.439216 1
0.0930037 0.0930037 0.439216 1
0.0930037 0.0930037 0.439216 1
0.0930037 0.0930037 0.439216 1
0.0930037 0.0930037 0.439216 1
0.0930037 0.0930037 0.439216 1
0.0930037 0.0930037 0.439216 1
0.0930037 0.0930037 0.439216 1
0.0930037 0.0930037 0.439216 1
0.0930037 0.0930037 0.439216 1
0.0930037 0.0930037 0.439216 1
0.0930037 0.0930037 0.439216 1
0.0930037 0.0930037 0.439216 1
0.0930037 0.0930037 0.439216 1
0.0930037 0.0930037 0.439216 1
0.0930037 0.0930037 0.439216 1
0.0930037 0.0930037 0.439216 1
0.0930037 0.0930037 0.439216 1
0.0930037 0.0930037 0.439216 1
0.0930037 0.0930037 0.439216 1
0.0930037 0.0930037 0.439216 1
0.0930037 0.0930037 0.439216 1
0.0930037 0.0930037 0.439216 1
0.0930037 0.0930037 0.439216 1
0.0930037 0.0930037 0.439216 1
0.0930037 0.0930037 0.439216 1
0.0930037 0.0930037 0.439216 1
0.0930037 0.0930037 0.439216 1
0.0930037 0.0930037 0.439216 1
0.0930037 0.0930037 0.439216 1
0.0930037 0.0930037 0.439216 1
0.0930037 0.0930037 0.439216 1
0.0930037 0.0930037 0.439216 1
0.0930037 0.0930037 0.439216 1
0.0930037 0.0930037 0.439216 1
0.0930037 0.0930037 0.439216 1
0.0930037 0.0930037 0.439216 1
0.0930037 0.0930037 0.439216 1
0.0930037 0.0930037 0.439216 1
0.0930037 0.0930037 0.439216 1
0.0930037 0.0930037 0.439216 1
0.0930037 0.0930037 0.439216 1
0.0930037 0.0930037 0.439216 1
0.0930037 0.0930037 0.439216 1
0.0930037 0.0930037 0.439216 1
0.0930037 0.0930037 0.439216 1
0.0930037 0.0930037 0.439216 1
0.0930037 0.0930037 0.439216 1
0.0930037 0.0930037 0.439216 1
0.0930037 0.0930037 0.439216 1
0.0930037 0.0930037 0.439216 1
0.0930037 0.0930037 0.439216 1
0.0930037 0.0930037 0.439216 1
0.0930037 0.0930037 0.439216 1
0.0930037 0.0930037 0.439216 1
0.0930037 0.0930037 0.439216 1
0.0930037 0.0930037 0.439216 1
0.0930037 0.0930037 0.439216 1
0.0930037 0.0930037 0.439216 1
0.0930037 0.0930037 0.439216 1
0.0930037 0.0930037 0.439216 1
0.0930037 0.0930037 0.439216 1
0.0930037 0.0930037 0.439216 1
0.0930037 0.0930037 0.439216 1
0.0930037 0.0930037 0.439216 1
0.0930037 0.0930037 0.439216 1
0.0930037 0.0930037 0.439216 1
0.0930037 0.0930037 0.439216 1
0.0930037 0.0930037 0.439216 1
0.0930037 0.0930037 0.439216 1
0.0930037 0.0930037 0.439216 1
0.0930037 0.0930037 0.439216 1
0.0930037 0.0930037 0.439216 1
0.0930037 0.0930037 0.439216 1
0.0930037 0.0930037 0.439216 1
0.0930037 0.0930037 0.439216 1
0.0930037 0.0930037 0.439216 1
0.0930037 0.0930037 0.439216 1
0.0930037 0.0930037 0.439216 1
0.0930037 0.0930037 0.439216 1
0.0930037 0.0930037 0.439216 1
0.0930037 0.0930037 0.439216 1
0.0930037 0.0930037 0.439216 1
0.0930037 0.0930037 0.439216 1
0.0930037 0.0930037 0.439216 1
0.0930037 0.0930037 0.439216 1
0.0930037 0.0930037 0.439216 1
0.0930037 0.0930037 0.439216 1
0.0930037 0.0930037 0.439216 1
0.0930037 0.0930037 0.439216 1
0.0930037 0.0930037 0.439216 1
0.0930037 0.0930037 0.439216 1
0.0930037 0.0930037 0.439216 1
0.0930037 0.0930037 0.439216 1
0.0930037 0.0930037 0.439216 1
0.0930037 0.0930037 0.439216 1
0.0930037 0.0930037 0.439216 1
0.0930037 0.0930037 0.439216 1
0.0930037 0.0930037 0.439216 1
0.0930037 0.0930037 0.439216 1
0.0930037 0.0930037 0.439216 1
0.0930037 0.0930037 0.439216 1
0.0930037 0.0930037 0.439216 1
0.0930037 0.0930037 0.439216 1
0.0930037 0.0930037 0.439216 1
0.0930037 0.0930037 0.439216 1
0.0930037 0.0930037 0.439216 1
0.0930037 0.0930037 0.439216 1
0.0930037 0.0930037 0.439216 1
0.0930037 0.0930037 0.439216 1
0.0930037 0.0930037 0.439216 1
0.0930037 0.0930037 0.439216 1
0.0930037 0.0930037 0.439216 1
0.0930037 0.0930037 0.439216 1
0.0930037 0.0930037 0.439216 1
0.0930037 0.0930037 0.439216 1
0.0930037 0.0930037 0.439216 1
0.0930037 0.0930037 0.439216 1
0.0930037 0.0930037 0.439216 1
0.0930037 0.0930037 0.439216 1
0.0930037 0.0930037 0.439216 1
0.0930037 0.0930037 0.439216 1
0.0930037 0.0930037 0.439216 1
0.0930037 0.0930037 0.439216 1
0.0930037 0.0930037 0.439216 1
0.0930037 0.0930037 0.439216 1
0.0930037 0.0930037 0.439216 1
0.0930037 0.0930037 0.439216 1
0.0930037 0.0930037 0.439216 1
0.0930037 0.0930037 0.439216 1
0.0930037 0.0930037 0.439216 1
0.0930037 0.0930037 0.439216 1
0.0930037 0.0930037 0.439216 1
0.0930037 0.0930037 0.439216 1
0.0930037 0.0930037 0.439216 1
0.0930037 0.0930037 0.439216 1
0.0930037 0.0930037 0.439216 1
0.0930037 0.0930037 0.439216 1
0.0930037 0.0930037 0.439216 1
0.0930037 0.0930037 0.439216 1
0.0930037 0.0930037 0.439216 1
0.0930037 0.0930037 0.439216 1
0.0930037 0.0930037 0.439216 1
0.0930037 0.0930037 0.439216 1
0.0930037 0.0930037 0.439216 1
0.0930037 0.0930037 0.439216 1
0.0930037 0.0930037 0.439216 1
0.0930037 0.0930037 0.439216 1
0.0930037 0.0930037 0.439216 1
0.0930037 0.0930037 0.439216 1
0.0930037 0.0930037 0.439216 1
0.0930037 0.0930037 0.439216 1
0.0930037 0.0930037 0.439216 1
0.0930037 0.0930037 0.439216 1
0.0930037 0.0930037 0.439216 1
0.0930037 0.0930037 0.439216 1
0.0930037 0.0930037 0.439216 1
0.0930037 0.0930037 0.439216 1
0.0930037 0.0930037 0.439216 1
0.0930037 0.0930037 0.439216 1
0.0930037 0.0930037 0.439216 1
0.0930037 0.0930037 0.439216 1
0.0930037 0.0930037 0.439216 1
0.0930037 0.0930037 0.439216 1
0.0930037 0.0930037 0.439216 1
0.0930037 0.0930037 0.439216 1
0.0930037 0.0930037 0.439216 1
0.0930037 0.0930037 0.439216 1
0.0930037 0.0930037 0.439216 1
0.0930037 0.0930037 0.439216 1
0.0930037 0.0930037 0.439216 1
0.0930037 0.0930037 0.439216 1
0.0930037 0.0930037 0.439216 1
0.0930037 0.0930037 0.439216 1
0.0930037 0.0930037 0.439216 1
0.0930037 0.0930037 0.439216 1
0.0930037 0.0930037 0.439216 1
0.0930037 0.0930037 0.439216 1
0.0930037 0.0930037 0.439216 1
0.0930037 0.0930037 0.439216 1
0.0930037 0.0930037 0.439216 1
0.0930037 0.0930037 0.439216 1
0.0930037 0.0930037 0.439216 1
0.0930037 0.0930037 0.439216 1
0.0930037 0.0930037 0.439216 1
0.0930037 0.0930037 0.439216 1
0.0930037 0.0930037 0.439216 1
0.0930037 0.0930037 0.439216 1
0.0930037 0.0930037 0.439216 1
0.0930037 0.0930037 0.439216 1
0.0930037 0.0930037 0.439216 1
0.0930037 0.0930037 0.439216 1
0.0930037 0.0930037 0.439216 1
0.0930037 0.0930037 0.439216 1
0.0930037 0.0930037 0.439216 1
0.0930037 0.0930037 0.439216 1
0.0930037 0.0930037 0.439216 1
0.0930037 0.0930037 0.439216 1
0.0930037 0.0930037 0.439216 1
0.0930037 0.0930037 0.439216 1
0.0930037 0.0930037 0.439216 1
0.0930037 0.0930037 0.439216 1
0.0930037 0.0930037 0.439216 1
0.0930037 0.0930037 0.439216 1
0.0930037 0.0930037 0.439216 1
0.0930037 0.0930037 0.439216 1
0.0930037 0.0930037 0.439216 1
0.0930037 0.0930037 0.439216 1
0.0930037 0.0930037 0.439216 1
0.0930037 0.0930037 0.439216 1
0.0930037 0.0930037 0.439216 1
0.0930037 0.0930037 0.439216 1
0.0930037 0.0930037 0.439216 1
0.0930037 0.0930037 0.439216 1
0.0930037 0.0930037 0.439216 1
0.0930037 0.0930037 0.439216 1
0.0930037 0.0930037 0.439216 1
0.0930037 0.0930037 0.439216 1