# vtk DataFile Version 3.0
Gocad TSurf to VTK
ASCII
DATASET POLYDATA
POINTS 718 float
21553575.000 4555730.000 58.750
21553650.000 4555730.000 111.250
21553725.000 4555810.000 66.250
21553800.000 4555770.000 167.500
21553450.000 4555775.000 -35.000
21553500.000 4555690.000 55.000
21553475.000 4555732.500 10.000
21553425.000 4555735.000 -17.500
21553000.000 4555660.000 -295.000
21553050.000 4555712.500 -280.000
21553375.000 4555657.500 80.000
21553000.000 4555610.000 -70.000
21552950.000 4555625.000 -211.250
21553250.000 4555625.000 105.000
21553125.000 4555592.500 130.000
21553000.000 4555585.000 42.500
21552850.000 4555555.000 -43.750
21553000.000 4555560.000 155.000
21552850.000 4555490.000 196.250
21552700.000 4555460.000 110.000
21552300.000 4555440.000 -95.000
21552700.000 4555420.000 237.500
21552550.000 4555350.000 278.750
21552500.000 4555340.000 250.000
21552350.000 4555360.000 112.500
21552400.000 4555280.000 320.000
21551925.000 4555192.500 -52.500
21551975.000 4555132.500 275.000
21551600.000 4555020.000 35.000
21551550.000 4555092.500 -130.000
21551550.000 4554985.000 230.000
21551375.000 4554945.000 -36.250
21551125.000 4554837.500 185.000
21551075.000 4554855.000 -36.250
21551200.000 4554910.000 -95.000
21550925.000 4554775.000 81.250
21550700.000 4554690.000 140.000
21550400.000 4554660.000 117.500
21550500.000 4554670.000 125.000
21550300.000 4554650.000 110.000
21550375.000 4554642.500 96.250
21550350.000 4554767.500 37.500
21550950.000 4555035.000 -110.000
21550225.000 4554747.500 12.500
21550400.000 4554885.000 -35.000
21549900.000 4554690.000 37.500
21550000.000 4554815.000 -77.500
21549425.000 4554607.500 180.000
21549500.000 4554730.000 -35.000
21549331.391 4554602.953 187.488
21549077.016 4554600.801 172.550
21549331.391 4554602.953 187.488
21549331.391 4554602.953 187.488
21548425.000 4554650.000 -55.000
21547988.328 4554542.859 277.148
21549050.000 4554650.000 0.000
21548725.000 4554702.500 -141.250
21548625.000 4554950.000 -211.250
21548200.000 4554720.000 -225.000
21547775.000 4554820.000 -138.750
21548300.000 4555045.000 -265.000
21548350.000 4555207.500 -285.000
21548075.000 4554872.500 -225.000
21547950.000 4555025.000 -225.000
21547725.000 4555160.000 -196.250
21548100.000 4555350.000 -350.000
21547250.000 4554955.000 50.000
21546975.000 4555107.500 130.000
21546922.844 4554522.840 323.380
21546880.469 4554564.934 329.204
21547679.891 4554537.063 297.544
21547720.063 4554531.492 295.529
21547724.750 4554530.957 295.121
21546844.188 4554603.469 334.444
21546794.344 4554686.406 332.982
21546786.391 4554699.645 332.749
21546767.891 4554730.441 332.206
21546750.000 4554870.000 300.000
21546725.000 4555065.000 255.000
21546700.000 4555260.000 210.000
21547700.000 4555505.000 -217.500
21547300.000 4555690.000 35.000
21547700.000 4555855.000 -202.500
21546750.000 4555457.500 231.250
21547100.000 4555870.000 165.000
21546850.000 4555852.500 273.750
21546899.891 4556049.594 294.956
21546900.094 4556049.918 294.941
21547575.000 4556102.500 -97.500
21546900.109 4556050.008 294.938
21546900.203 4556050.188 294.930
21547050.000 4556185.000 245.000
21547125.000 4556252.500 220.000
21547200.000 4556320.000 195.000
21547925.000 4556380.000 -68.750
21548050.000 4556155.000 -277.500
21547325.000 4556402.500 212.500
21547775.000 4556560.000 153.750
21547575.000 4556567.500 247.500
21547575.000 4556567.500 247.500
21547700.000 4556650.000 265.000
21548400.000 4556660.000 -85.000
21548300.000 4556567.500 -108.750
21547850.000 4556715.000 255.000
21548000.000 4556780.000 245.000
21547850.000 4556715.000 255.000
21548350.000 4556785.000 70.000
21548500.000 4556730.000 -60.000
21548150.000 4556845.000 235.000
21548300.000 4556910.000 225.000
21548925.000 4556870.000 -100.000
21548425.000 4556960.000 203.750
21548800.000 4557025.000 77.500
21548425.000 4556960.000 203.750
21548550.000 4557010.000 182.500
21548675.000 4557060.000 161.250
21548800.000 4557110.000 140.000
21549100.000 4557040.000 -7.500
21549525.000 4557245.000 -96.250
21549525.000 4556895.000 -256.250
21549000.000 4557207.500 132.500
21549550.000 4557330.000 -27.500
21549000.000 4557207.500 132.500
21549200.000 4557305.000 125.000
21549400.000 4557402.500 117.500
21549575.000 4557415.000 41.250
21549600.000 4557500.000 110.000
21549750.000 4557427.500 6.250
21549750.000 4557345.000 -85.000
21550900.000 4557660.000 -15.000
21550550.000 4557435.000 -160.000
21551275.000 4557830.000 -151.250
21550975.000 4557575.000 -18.750
21552025.000 4558150.000 -423.750
21552175.000 4557935.000 -275.000
21550075.000 4557810.000 71.250
21549800.000 4557860.000 100.000
21549650.000 4557590.000 107.500
21549700.000 4557680.000 105.000
21549650.000 4557590.000 107.500
21549750.000 4557770.000 102.500
21552400.000 4558310.000 -560.000
21550225.000 4558060.000 12.500
21552325.000 4558185.000 -465.000
21552250.000 4558060.000 -370.000
21552550.000 4558215.000 -493.750
21552775.000 4558260.000 -493.750
21552700.000 4558120.000 -427.500
21552400.000 4558737.500 -391.250
21552750.000 4558525.000 -486.250
21552175.000 4558397.500 -482.500
21551725.000 4558572.500 -327.500
21552300.000 4558860.000 -335.000
21551075.000 4558460.000 -162.500
21551475.000 4558760.000 -243.750
21549750.000 4558050.000 105.000
21549725.000 4558145.000 107.500
21549775.000 4557955.000 102.500
21549775.000 4557955.000 102.500
21549700.000 4558240.000 110.000
21550125.000 4558445.000 26.250
21551425.000 4558960.000 -231.250
21549675.000 4558320.000 117.500
21549650.000 4558400.000 125.000
21549625.000 4558480.000 132.500
21550975.000 4558855.000 -141.250
21549600.000 4558560.000 140.000
21551400.000 4559382.500 -202.500
21550550.000 4559025.000 -42.500
21551400.000 4559490.000 -195.000
21549625.000 4558667.500 140.000
21549650.000 4558775.000 140.000
21549625.000 4558667.500 140.000
21549675.000 4558882.500 140.000
21549700.000 4558990.000 140.000
21551750.000 4559385.000 -265.000
21552100.000 4559280.000 -335.000
21552100.000 4559700.000 -305.000
21552100.000 4559595.000 -312.500
21552100.000 4559385.000 -327.500
21552200.000 4559625.000 -312.500
21552300.000 4559550.000 -320.000
21552400.000 4559780.000 -305.000
21552450.000 4559590.000 -320.000
21552725.000 4559760.000 -293.750
21552575.000 4559520.000 -321.250
21552800.000 4559880.000 -280.000
21552950.000 4559715.000 -210.000
21553325.000 4559917.500 -65.000
21553175.000 4559672.500 -115.000
21553400.000 4560040.000 -40.000
21553525.000 4559977.500 36.250
21553800.000 4560160.000 280.000
21553825.000 4560067.500 276.250
21553650.000 4559915.000 112.500
21553850.000 4559975.000 272.500
21553875.000 4559882.500 268.750
21553900.000 4559790.000 265.000
21553100.000 4559550.000 -140.000
21553450.000 4559370.000 -20.000
21553050.000 4559410.000 -171.250
21553875.000 4559640.000 223.750
21553800.000 4559190.000 100.000
21554000.000 4559670.000 255.000
21554100.000 4559550.000 245.000
21554000.000 4559672.500 257.500
21554100.000 4559555.000 250.000
21554200.000 4559437.500 242.500
21554200.000 4559430.000 235.000
21554300.000 4559320.000 235.000
21554200.000 4558950.000 175.000
21554450.000 4559015.000 242.500
21553425.000 4558657.500 -290.000
21552900.000 4558990.000 -265.000
21554600.000 4558710.000 250.000
21554525.000 4558862.500 246.250
21553300.000 4558480.000 -420.000
21553200.000 4558607.500 -381.250
21554450.000 4558547.500 163.750
21553650.000 4558270.000 -257.500
21554700.000 4558577.500 226.250
21554800.000 4558445.000 202.500
21554750.000 4558585.000 246.250
21554900.000 4558460.000 242.500
21555050.000 4558335.000 238.750
21555000.000 4558180.000 155.000
21554150.000 4558222.500 -8.750
21555200.000 4558210.000 235.000
21555200.000 4558057.500 211.250
21555050.000 4558035.000 151.250
21555275.000 4558062.500 263.750
21555200.000 4557905.000 187.500
21555350.000 4557915.000 292.500
21555100.000 4557890.000 147.500
21554950.000 4557880.000 97.500
21555075.000 4557745.000 143.750
21555425.000 4557767.500 321.250
21555175.000 4557382.500 233.750
21555100.000 4557600.000 140.000
21555500.000 4557620.000 350.000
21555350.000 4557390.000 233.750
21555200.000 4557310.000 265.000
21555475.000 4557545.000 328.750
21555400.000 4557320.000 265.000
21555550.000 4557550.000 325.000
21555600.000 4557480.000 300.000
21555625.000 4557555.000 353.750
21555750.000 4557490.000 357.500
21555650.000 4557410.000 275.000
21555875.000 4557425.000 361.250
21556000.000 4557360.000 365.000
21555950.000 4557197.500 378.750
21555725.000 4557182.500 292.500
21555900.000 4557035.000 392.500
21555750.000 4557025.000 335.000
21555600.000 4557025.000 257.500
21555850.000 4556872.500 406.250
21555775.000 4556867.500 377.500
21555800.000 4556710.000 420.000
21555500.000 4556710.000 265.000
21555475.000 4556547.500 367.500
21555400.000 4557015.000 265.000
21555400.000 4557167.500 261.250
21555400.000 4556862.500 265.000
21555300.000 4557010.000 257.500
21555175.000 4556547.500 251.250
21555100.000 4556700.000 280.000
21555150.000 4556385.000 315.000
21554950.000 4556385.000 230.000
21554950.000 4556540.000 251.250
21554825.000 4556222.500 262.500
21554800.000 4556380.000 245.000
21554575.000 4556220.000 231.250
21554500.000 4556060.000 210.000
21554650.000 4556380.000 252.500
21554500.000 4556380.000 210.000
21554725.000 4556540.000 273.750
21554800.000 4556700.000 295.000
21554500.000 4556540.000 221.250
21554500.000 4556700.000 225.000
21554350.000 4556380.000 132.500
21554275.000 4556540.000 93.750
21554425.000 4556220.000 171.250
21554125.000 4556235.000 -57.500
21554100.000 4556080.000 -95.000
21554400.000 4556007.500 227.500
21554100.000 4555965.000 92.500
21554025.000 4556022.500 -53.750
21554300.000 4555955.000 245.000
21554200.000 4555902.500 262.500
21554100.000 4555850.000 280.000
21553800.000 4555850.000 70.000
21553950.000 4555965.000 -12.500
21553950.000 4555810.000 223.750
21553425.000 4555920.000 -185.000
21553725.000 4555912.500 -38.750
21553200.000 4555870.000 -235.000
21553425.000 4556042.500 -332.500
21552850.000 4555775.000 -330.000
[...]
POINT_DATA 718
COLOR_SCALARS GocadColor 4
0.854902 0.666667 0 1
0.854902 0.666667 0 1
0.854902 0.666667 0 1
0.854902 0.666667 0 1
0.854902 0.666667 0 1
0.854902 0.666667 0 1
0.854902 0.666667 0 1
0.854902 0.666667 0 1
0.854902 0.666667 0 1
0.854902 0.666667 0 1
0.854902 0.666667 0 1
0.854902 0.666667 0 1
0.854902 0.666667 0 1
0.854902 0.666667 0 1
0.854902 0.666667 0 1
0.854902 0.666667 0 1
0.854902 0.666667 0 1
0.854902 0.666667 0 1
0.854902 0.666667 0 1
0.854902 0.666667 0 1
0.854902 0.666667 0 1
0.854902 0.666667 0 1
0.854902 0.666667 0 1
0.854902 0.666667 0 1
0.854902 0.666667 0 1
0.854902 0.666667 0 1
0.854902 0.666667 0 1
0.854902 0.666667 0 1
0.854902 0.666667 0 1
0.854902 0.666667 0 1
0.854902 0.666667 0 1
0.854902 0.666667 0 1
0.854902 0.666667 0 1
0.854902 0.666667 0 1
0.854902 0.666667 0 1
0.854902 0.666667 0 1
0.854902 0.666667 0 1
0.854902 0.666667 0 1
0.854902 0.666667 0 1
0.854902 0.666667 0 1
0.854902 0.666667 0 1
0.854902 0.666667 0 1
0.854902 0.666667 0 1
0.854902 0.666667 0 1
0.854902 0.666667 0 1
0.854902 0.666667 0 1
0.854902 0.666667 0 1
0.854902 0.666667 0 1
0.854902 0.666667 0 1
0.854902 0.666667 0 1
0.854902 0.666667 0 1
0.854902 0.666667 0 1
0.854902 0.666667 0 1
0.854902 0.666667 0 1
0.854902 0.666667 0 1
0.854902 0.666667 0 1
0.854902 0.666667 0 1
0.854902 0.666667 0 1
0.854902 0.666667 0 1
0.854902 0.666667 0 1
0.854902 0.666667 0 1
0.854902 0.666667 0 1
0.854902 0.666667 0 1
0.854902 0.666667 0 1
0.854902 0.666667 0 1
0.854902 0.666667 0 1
0.854902 0.666667 0 1
0.854902 0.666667 0 1
0.854902 0.666667 0 1
0.854902 0.666667 0 1
0.854902 0.666667 0 1
0.854902 0.666667 0 1
0.854902 0.666667 0 1
0.854902 0.666667 0 1
0.854902 0.666667 0 1
0.854902 0.666667 0 1
0.854902 0.666667 0 1
0.854902 0.666667 0 1
0.854902 0.666667 0 1
0.854902 0.666667 0 1
0.854902 0.666667 0 1
0.854902 0.666667 0 1
0.854902 0.666667 0 1
0.854902 0.666667 0 1
0.854902 0.666667 0 1
0.854902 0.666667 0 1
0.854902 0.666667 0 1
0.854902 0.666667 0 1
0.854902 0.666667 0 1
0.854902 0.666667 0 1
0.854902 0.666667 0 1
0.854902 0.666667 0 1
0.854902 0.666667 0 1
0.854902 0.666667 0 1
0.854902 0.666667 0 1
0.854902 0.666667 0 1
0.854902 0.666667 0 1
0.854902 0.666667 0 1
0.854902 0.666667 0 1
0.854902 0.666667 0 1
0.854902 0.666667 0 1
0.854902 0.666667 0 1
0.854902 0.666667 0 1
0.854902 0.666667 0 1
0.854902 0.666667 0 1
0.854902 0.666667 0 1
0.854902 0.666667 0 1
0.854902 0.666667 0 1
0.854902 0.666667 0 1
0.854902 0.666667 0 1
0.854902 0.666667 0 1
0.854902 0.666667 0 1
0.854902 0.666667 0 1
0.854902 0.666667 0 1
0.854902 0.666667 0 1
0.854902 0.666667 0 1
0.854902 0.666667 0 1
0.854902 0.666667 0 1
0.854902 0.666667 0 1
0.854902 0.666667 0 1
0.854902 0.666667 0 1
0.854902 0.666667 0 1
0.854902 0.666667 0 1
0.854902 0.666667 0 1
0.854902 0.666667 0 1
0.854902 0.666667 0 1
0.854902 0.666667 0 1
0.854902 0.666667 0 1
0.854902 0.666667 0 1
0.854902 0.666667 0 1
0.854902 0.666667 0 1
0.854902 0.666667 0 1
0.854902 0.666667 0 1
0.854902 0.666667 0 1
0.854902 0.666667 0 1
0.854902 0.666667 0 1
0.854902 0.666667 0 1
0.854902 0.666667 0 1
0.854902 0.666667 0 1
0.854902 0.666667 0 1
0.854902 0.666667 0 1
0.854902 0.666667 0 1
0.854902 0.666667 0 1
0.854902 0.666667 0 1
0.854902 0.666667 0 1
0.854902 0.666667 0 1
0.854902 0.666667 0 1
0.854902 0.666667 0 1
0.854902 0.666667 0 1
0.854902 0.666667 0 1
0.854902 0.666667 0 1
0.854902 0.666667 0 1
0.854902 0.666667 0 1
0.854902 0.666667 0 1
0.854902 0.666667 0 1
0.854902 0.666667 0 1
0.854902 0.666667 0 1
0.854902 0.666667 0 1
0.854902 0.666667 0 1
0.854902 0.666667 0 1
0.854902 0.666667 0 1
0.854902 0.666667 0 1
0.854902 0.666667 0 1
0.854902 0.666667 0 1
0.854902 0.666667 0 1
0.854902 0.666667 0 1
0.854902 0.666667 0 1
0.854902 0.666667 0 1
0.854902 0.666667 0 1
0.854902 0.666667 0 1
0.854902 0.666667 0 1
0.854902 0.666667 0 1
0.854902 0.666667 0 1
0.854902 0.666667 0 1
0.854902 0.666667 0 1
0.854902 0.666667 0 1
0.854902 0.666667 0 1
0.854902 0.666667 0 1
0.854902 0.666667 0 1
0.854902 0.666667 0 1
0.854902 0.666667 0 1
0.854902 0.666667 0 1
0.854902 0.666667 0 1
0.854902 0.666667 0 1
0.854902 0.666667 0 1
0.854902 0.666667 0 1
0.854902 0.666667 0 1
0.854902 0.666667 0 1
0.854902 0.666667 0 1
0.854902 0.666667 0 1
0.854902 0.666667 0 1
0.854902 0.666667 0 1
0.854902 0.666667 0 1
0.854902 0.666667 0 1
0.854902 0.666667 0 1
0.854902 0.666667 0 1
0.854902 0.666667 0 1
0.854902 0.666667 0 1
0.854902 0.666667 0 1
0.854902 0.666667 0 1
0.854902 0.666667 0 1
0.854902 0.666667 0 1
0.854902 0.666667 0 1
0.854902 0.666667 0 1
0.854902 0.666667 0 1
0.854902 0.666667 0 1
0.854902 0.666667 0 1
0.854902 0.666667 0 1
0.854902 0.666667 0 1
0.854902 0.666667 0 1
0.854902 0.666667 0 1
0.854902 0.666667 0 1
0.854902 0.666667 0 1
0.854902 0.666667 0 1
0.854902 0.666667 0 1
0.854902 0.666667 0 1
0.854902 0.666667 0 1
0.854902 0.666667 0 1
0.854902 0.666667 0 1
0.854902 0.666667 0 1
0.854902 0.666667 0 1
0.854902 0.666667 0 1
0.854902 0.666667 0 1
0.854902 0.666667 0 1
0.854902 0.666667 0 1
0.854902 0.666667 0 1
0.854902 0.666667 0 1
0.854902 0.666667 0 1
0.854902 0.666667 0 1
0.854902 0.666667 0 1
0.854902 0.666667 0 1
0.854902 0.666667 0 1
0.854902 0.666667 0 1
0.854902 0.666667 0 1
0.854902 0.666667 0 1
0.854902 0.666667 0 1
0.854902 0.666667 0 1
0.854902 0.666667 0 1
0.854902 0.666667 0 1
0.854902 0.666667 0 1
0.854902 0.666667 0 1
0.854902 0.666667 0 1
0.854902 0.666667 0 1
0.854902 0.666667 0 1
0.854902 0.666667 0 1
0.854902 0.666667 0 1
0.854902 0.666667 0 1
0.854902 0.666667 0 1
0.854902 0.666667 0 1
0.854902 0.666667 0 1
0.854902 0.666667 0 1
0.854902 0.666667 0 1
0.854902 0.666667 0 1
0.854902 0.666667 0 1
0.854902 0.666667 0 1
0.854902 0.666667 0 1
0.854902 0.666667 0 1
0.854902 0.666667 0 1
0.854902 0.666667 0 1
0.854902 0.666667 0 1
0.854902 0.666667 0 1
0.854902 0.666667 0 1
0.854902 0.666667 0 1
0.854902 0.666667 0 1
0.854902 0.666667 0 1
0.854902 0.666667 0 1
0.854902 0.666667 0 1
0.854902 0.666667 0 1
0.854902 0.666667 0 1
0.854902 0.666667 0 1
0.854902 0.666667 0 1
0.854902 0.666667 0 1
0.854902 0.666667 0 1
0.854902 0.666667 0 1
0.854902 0.666667 0 1
0.854902 0.666667 0 1
0.854902 0.666667 0 1
0.854902 0.666667 0 1
0.854902 0.666667 0 1
0.854902 0.666667 0 1
0.854902 0.666667 0 1
0.854902 0.666667 0 1
0.854902 0.666667 0 1
0.854902 0.666667 0 1
0.854902 0.666667 0 1
0.854902 0.666667 0 1
0.854902 0.666667 0 1
0.854902 0.666667 0 1
0.854902 0.666667 0 1
0.854902 0.666667 0 1
0.854902 0.666667 0 1
0.854902 0.666667 0 1
0.854902 0.666667 0 1
0.854902 0.666667 0 1
0.854902 0.666667 0 1
0.854902 0.666667 0 1
0.854902 0.666667 0 1
0.854902 0.666667 0 1
0.854902 0.666667 0 1
0.854902 0.666667 0 1
0.854902 0.666667 0 1
0.854902 0.666667 0 1
0.854902 0.666667 0 1
0.854902 0.666667 0 1
0.854902 0.666667 0 1
0.854902 0.666667 0 1
0.854902 0.666667 0 1
0.854902 0.666667 0 1
0.854902 0.666667 0 1
0.854902 0.666667 0 1
0.854902 0.666667 0 1
0.854902 0.666667 0 1
0.854902 0.666667 0 1
0.854902 0.666667 0 1
0.854902 0.666667 0 1
0.854902 0.666667 0 1
0.854902 0.666667 0 1
0.854902 0.666667 0 1
0.854902 0.666667 0 1
0.854902 0.666667 0 1
0.854902 0.666667 0 1
0.854902 0.666667 0 1
0.854902 0.666667 0 1
0.854902 0.666667 0 1
0.854902 0.666667 0 1
0.854902 0.666667 0 1
0.854902 0.666667 0 1
0.854902 0.666667 0 1
0.854902 0.666667 0 1
0.854902 0.666667 0 1
0.854902 0.666667 0 1
0.854902 0.666667 0 1
0.854902 0.666667 0 1
0.854902 0.666667 0 1
0.854902 0.666667 0 1
0.854902 0.666667 0 1
0.854902 0.666667 0 1
0.854902 0.666667 0 1
0.854902 0.666667 0 1
0.854902 0.666667 0 1
0.854902 0.666667 0 1
0.854902 0.666667 0 1
0.854902 0.666667 0 1
0.854902 0.666667 0 1
0.854902 0.666667 0 1
0.854902 0.666667 0 1
0.854902 0.666667 0 1
0.854902 0.666667 0 1
0.854902 0.666667 0 1
0.854902 0.666667 0 1
0.854902 0.666667 0 1
0.854902 0.666667 0 1
0.854902 0.666667 0 1
0.854902 0.666667 0 1
0.854902 0.666667 0 1
0.854902 0.666667 0 1
0.854902 0.666667 0 1
0.854902 0.666667 0 1
0.854902 0.666667 0 1
0.854902 0.666667 0 1
0.854902 0.666667 0 1
0.854902 0.666667 0 1
0.854902 0.666667 0 1
0.854902 0.666667 0 1
0.854902 0.666667 0 1
0.854902 0.666667 0 1
0.854902 0.666667 0 1
0.854902 0.666667 0 1
0.854902 0.666667 0 1
0.854902 0.666667 0 1
0.854902 0.666667 0 1
0.854902 0.666667 0 1
0.854902 0.666667 0 1
0.854902 0.666667 0 1
0.854902 0.666667 0 1
0.854902 0.666667 0 1
0.854902 0.666667 0 1
0.854902 0.666667 0 1
0.854902 0.666667 0 1
0.854902 0.666667 0 1
0.854902 0.666667 0 1
0.854902 0.666667 0 1
0.854902 0.666667 0 1
0.854902 0.666667 0 1
0.854902 0.666667 0 1
0.854902 0.666667 0 1
0.854902 0.666667 0 1
0.854902 0.666667 0 1
0.854902 0.666667 0 1
0.854902 0.666667 0 1
0.854902 0.666667 0 1
0.854902 0.666667 0 1
0.854902 0.666667 0 1
0.854902 0.666667 0 1
0.854902 0.666667 0 1
0.854902 0.666667 0 1
0.854902 0.666667 0 1
0.854902 0.666667 0 1
0.854902 0.666667 0 1
0.854902 0.666667 0 1
0.854902 0.666667 0 1
0.854902 0.666667 0 1
0.854902 0.666667 0 1
0.854902 0.666667 0 1
0.854902 0.666667 0 1
0.854902 0.666667 0 1
0.854902 0.666667 0 1
0.854902 0.666667 0 1
0.854902 0.666667 0 1
0.854902 0.666667 0 1
0.854902 0.666667 0 1
0.854902 0.666667 0 1
0.854902 0.666667 0 1
0.854902 0.666667 0 1
0.854902 0.666667 0 1
0.854902 0.666667 0 1
0.854902 0.666667 0 1
0.854902 0.666667 0 1
0.854902 0.666667 0 1
0.854902 0.666667 0 1
0.854902 0.666667 0 1
0.854902 0.666667 0 1
0.854902 0.666667 0 1
0.854902 0.666667 0 1
0.854902 0.666667 0 1
0.854902 0.666667 0 1
0.854902 0.666667 0 1
0.854902 0.666667 0 1
0.854902 0.666667 0 1
0.854902 0.666667 0 1
0.854902 0.666667 0 1
0.854902 0.666667 0 1
0.854902 0.666667 0 1
0.854902 0.666667 0 1
0.854902 0.666667 0 1
0.854902 0.666667 0 1
0.854902 0.666667 0 1
0.854902 0.666667 0 1
0.854902 0.666667 0 1
0.854902 0.666667 0 1
0.854902 0.666667 0 1
0.854902 0.666667 0 1
0.854902 0.666667 0 1
0.854902 0.666667 0 1
0.854902 0.666667 0 1
0.854902 0.666667 0 1
0.854902 0.666667 0 1
0.854902 0.666667 0 1
0.854902 0.666667 0 1
0.854902 0.666667 0 1
0.854902 0.666667 0 1
0.854902 0.666667 0 1
0.854902 0.666667 0 1
0.854902 0.666667 0 1
0.854902 0.666667 0 1
0.854902 0.666667 0 1
0.854902 0.666667 0 1
0.854902 0.666667 0 1
0.854902 0.666667 0 1
0.854902 0.666667 0 1
0.854902 0.666667 0 1
0.854902 0.666667 0 1
0.854902 0.666667 0 1
0.854902 0.666667 0 1
0.854902 0.666667 0 1
0.854902 0.666667 0 1
0.854902 0.666667 0 1
0.854902 0.666667 0 1
0.854902 0.666667 0 1
0.854902 0.666667 0 1
0.854902 0.666667 0 1
0.854902 0.666667 0 1
0.854902 0.666667 0 1
0.854902 0.666667 0 1
0.854902 0.666667 0 1
0.854902 0.666667 0 1
0.854902 0.666667 0 1
0.854902 0.666667 0 1
0.854902 0.666667 0 1
0.854902 0.666667 0 1
0.854902 0.666667 0 1
0.854902 0.666667 0 1
0.854902 0.666667 0 1
0.854902 0.666667 0 1
0.854902 0.666667 0 1
0.854902 0.666667 0 1
0.854902 0.666667 0 1
0.854902 0.666667 0 1
0.854902 0.666667 0 1
0.854902 0.666667 0 1
0.854902 0.666667 0 1
0.854902 0.666667 0 1
0.854902 0.666667 0 1
0.854902 0.666667 0 1
0.854902 0.666667 0 1
0.854902 0.666667 0 1
0.854902 0.666667 0 1
0.854902 0.666667 0 1
0.854902 0.666667 0 1
0.854902 0.666667 0 1
0.854902 0.666667 0 1
0.854902 0.666667 0 1
0.854902 0.666667 0 1
0.854902 0.666667 0 1
0.854902 0.666667 0 1
0.854902 0.666667 0 1
0.854902 0.666667 0 1
0.854902 0.666667 0 1
0.854902 0.666667 0 1
0.854902 0.666667 0 1
0.854902 0.666667 0 1
0.854902 0.666667 0 1
0.854902 0.666667 0 1
0.854902 0.666667 0 1
0.854902 0.666667 0 1
0.854902 0.666667 0 1
0.854902 0.666667 0 1
0.854902 0.666667 0 1
0.854902 0.666667 0 1
0.854902 0.666667 0 1
0.854902 0.666667 0 1
0.854902 0.666667 0 1
0.854902 0.666667 0 1
0.854902 0.666667 0 1
0.854902 0.666667 0 1
0.854902 0.666667 0 1
0.854902 0.666667 0 1
0.854902 0.666667 0 1
0.854902 0.666667 0 1
0.854902 0.666667 0 1
0.854902 0.666667 0 1
0.854902 0.666667 0 1
0.854902 0.666667 0 1
0.854902 0.666667 0 1
0.854902 0.666667 0 1
0.854902 0.666667 0 1
0.854902 0.666667 0 1
0.854902 0.666667 0 1
0.854902 0.666667 0 1
0.854902 0.666667 0 1
0.854902 0.666667 0 1
0.854902 0.666667 0 1
0.854902 0.666667 0 1
0.854902 0.666667 0 1
0.854902 0.666667 0 1
0.854902 0.666667 0 1
0.854902 0.666667 0 1
0.854902 0.666667 0 1
0.854902 0.666667 0 1
0.854902 0.666667 0 1
0.854902 0.666667 0 1
0.854902 0.666667 0 1
0.854902 0.666667 0 1
0.854902 0.666667 0 1
0.854902 0.666667 0 1
0.854902 0.666667 0 1
0.854902 0.666667 0 1
0.854902 0.666667 0 1
0.854902 0.666667 0 1
0.854902 0.666667 0 1
0.854902 0.666667 0 1
0.854902 0.666667 0 1
0.854902 0.666667 0 1
0.854902 0.666667 0 1
0.854902 0.666667 0 1
0.854902 0.666667 0 1
0.854902 0.666667 0 1
0.854902 0.666667 0 1
0.854902 0.666667 0 1
0.854902 0.666667 0 1
0.854902 0.666667 0 1
0.854902 0.666667 0 1
0.854902 0.666667 0 1
0.854902 0.666667 0 1
0.854902 0.666667 0 1
0.854902 0.666667 0 1
0.854902 0.666667 0 1
0.854902 0.666667 0 1
0.854902 0.666667 0 1
0.854902 0.666667 0 1
0.854902 0.666667 0 1
0.854902 0.666667 0 1
0.854902 0.666667 0 1
0.854902 0.666667 0 1
0.854902 0.666667 0 1
0.854902 0.666667 0 1
0.854902 0.666667 0 1
0.854902 0.666667 0 1
0.854902 0.666667 0 1
0.854902 0.666667 0 1
0.854902 0.666667 0 1
0.854902 0.666667 0 1
0.854902 0.666667 0 1
0.854902 0.666667 0 1
0.854902 0.666667 0 1
0.854902 0.666667 0 1
0.854902 0.666667 0 1
0.854902 0.666667 0 1
0.854902 0.666667 0 1
0.854902 0.666667 0 1
0.854902 0.666667 0 1
0.854902 0.666667 0 1
0.854902 0.666667 0 1
0.854902 0.666667 0 1
0.854902 0.666667 0 1
0.854902 0.666667 0 1
0.854902 0.666667 0 1
0.854902 0.666667 0 1
0.854902 0.666667 0 1
0.854902 0.666667 0 1
0.854902 0.666667 0 1
0.854902 0.666667 0 1
0.854902 0.666667 0 1
0.854902 0.666667 0 1
0.854902 0.666667 0 1
0.854902 0.666667 0 1
0.854902 0.666667 0 1
0.854902 0.666667 0 1
0.854902 0.666667 0 1
0.854902 0.666667 0 1
0.854902 0.666667 0 1
0.854902 0.666667 0 1
0.854902 0.666667 0 1
0.854902 0.666667 0 1
0.854902 0.666667 0 1
0.854902 0.666667 0 1
0.854902 0.666667 0 1
0.854902 0.666667 0 1
0.854902 0.666667 0 1
0.854902 0.666667 0 1
0.854902 0.666667 0 1
0.854902 0.666667 0 1
0.854902 0.666667 0 1
0.854902 0.666667 0 1
0.854902 0.666667 0 1
0.854902 0.666667 0 1
0.854902 0.666667 0 1
0.854902 0.666667 0 1
0.854902 0.666667 0 1
0.854902 0.666667 0 1
0.854902 0.666667 0 1
0.854902 0.666667 0 1
0.854902 0.666667 0 1
0.854902 0.666667 0 1
0.854902 0.666667 0 1
0.854902 0.666667 0 1
0.854902 0.666667 0 1
0.854902 0.666667 0 1
0.854902 0.666667 0 1
0.854902 0.666667 0 1
0.854902 0.666667 0 1
0.854902 0.666667 0 1
0.854902 0.666667 0 1
0.854902 0.666667 0 1
0.854902 0.666667 0 1
0.854902 0.666667 0 1
0.854902 0.666667 0 1
0.854902 0.666667 0 1
0.854902 0.666667 0 1
0.854902 0.666667 0 1
0.854902 0.666667 0 1
0.854902 0.666667 0 1
0.854902 0.666667 0 1
0.854902 0.666667 0 1
0.854902 0.666667 0 1
0.854902 0.666667 0 1
0.854902 0.666667 0 1
0.854902 0.666667 0 1
0.854902 0.666667 0 1
0.854902 0.666667 0 1
0.854902 0.666667 0 1
0.854902 0.666667 0 1
0.854902 0.666667 0 1
0.854902 0.666667 0 1
0.854902 0.666667 0 1
0.854902 0.666667 0 1
0.854902 0.666667 0 1
0.854902 0.666667 0 1
0.854902 0.666667 0 1
0.854902 0.666667 0 1
0.854902 0.666667 0 1
0.854902 0.666667 0 1
0.854902 0.666667 0 1
0.854902 0.666667 0 1
0.854902 0.666667 0 1
0.854902 0.666667 0 1
0.854902 0.666667 0 1
0.854902 0.666667 0 1
0.854902 0.666667 0 1
0.854902 0.666667 0 1
0.854902 0.666667 0 1
0.854902 0.666667 0 1
0.854902 0.666667 0 1
0.854902 0.666667 0 1
0.854902 0.666667 0 1
0.854902 0.666667 0 1
0.854902 0.666667 0 1
0.854902 0.666667 0 1
0.854902 0.666667 0 1
0.854902 0.666667 0 1
0.854902 0.666667 0 1
0.854902 0.666667 0 1
0.854902 0.666667 0 1
0.854902 0.666667 0 1
0.854902 0.666667 0 1
0.854902 0.666667 0 1
0.854902 0.666667 0 1
0.854902 0.666667 0 1
0.854902 0.666667 0 1
0.854902 0.666667 0 1
0.854902 0.666667 0 1
0.854902 0.666667 0 1
0.854902 0.666667 0 1
0.854902 0.666667 0 1
0.854902 0.666667 0 1
0.854902 0.666667 0 1
0.854902 0.666667 0 1
0.854902 0.666667 0 1

