# vtk DataFile Version 3.0
Gocad TSurf to VTK
ASCII
DATASET POLYDATA
POINTS 1279 float
21621700.000 4563730.000 320.000
21621800.000 4563710.000 342.500
21621700.000 4563590.000 358.750
21621650.000 4563600.000 347.500
21621750.000 4563860.000 292.500
21621900.000 4563830.000 326.250
21621150.000 4563855.000 160.000
21621375.000 4563662.500 267.500
21620925.000 4564047.500 52.500
21620450.000 4564020.000 -97.500
21621800.000 4563990.000 265.000
21620700.000 4564240.000 -55.000
21620575.000 4564130.000 -76.250
21620875.000 4564310.000 -51.250
21620800.000 4564330.000 -45.000
21621700.000 4564122.500 188.750
21621800.000 4564097.500 216.250
21621050.000 4564380.000 -47.500
21620900.000 4564420.000 -35.000
21621600.000 4564255.000 112.500
21621800.000 4564205.000 167.500
21621225.000 4564450.000 -43.750
21621000.000 4564510.000 -25.000
21621500.000 4564387.500 36.250
21621800.000 4564312.500 118.750
21621400.000 4564520.000 -40.000
21621800.000 4564420.000 70.000
21621100.000 4564600.000 -15.000
21621325.000 4564632.500 -26.250
21620900.000 4564640.000 -30.000
21620950.000 4564722.500 -18.750
21620850.000 4564540.000 -36.250
21620850.000 4564540.000 -36.250
21620800.000 4564440.000 -42.500
21620775.000 4564570.000 -43.750
21620750.000 4564460.000 -47.500
21620800.000 4564680.000 -40.000
21620875.000 4564752.500 -26.250
21620100.000 4564727.500 -411.250
21620300.000 4564565.000 -292.500
21619900.000 4564890.000 -530.000
21620100.000 4564937.500 -438.750
21619700.000 4564817.500 -512.500
21619500.000 4564745.000 -495.000
21619400.000 4565010.000 -670.000
21619525.000 4565072.500 -642.500
21619325.000 4564907.500 -617.500
21618800.000 4565050.000 -617.500
21618900.000 4564900.000 -565.000
21618700.000 4565200.000 -670.000
21618850.000 4565255.000 -662.500
21618700.000 4565072.500 -662.500
21618700.000 4564945.000 -655.000
21618400.000 4565125.000 -726.250
21618500.000 4564980.000 -697.500
21618300.000 4565270.000 -755.000
21618400.000 4565342.500 -720.000
21618100.000 4565195.000 -858.750
21617400.000 4565510.000 -1240.000
21618125.000 4565412.500 -796.250
21617425.000 4565375.000 -1222.500
21617900.000 4565120.000 -962.500
21616975.000 4565487.500 -1402.500
21617150.000 4565315.000 -1325.000
21616800.000 4565660.000 -1480.000
21617000.000 4565705.000 -1340.000
21616600.000 4565572.500 -1500.000
21616400.000 4565485.000 -1520.000
21615900.000 4565870.000 -1675.000
21616050.000 4565930.000 -1615.000
21615925.000 4565730.000 -1646.250
21615925.000 4565730.000 -1646.250
21615950.000 4565590.000 -1617.500
21615950.000 4565590.000 -1617.500
21615975.000 4565450.000 -1588.750
21616200.000 4565397.500 -1540.000
21615975.000 4565450.000 -1588.750
21616000.000 4565310.000 -1560.000
21617325.000 4565142.500 -1247.500
21617500.000 4564970.000 -1170.000
21617450.000 4565240.000 -1205.000
21617475.000 4565105.000 -1187.500
21617700.000 4565045.000 -1066.250
21618700.000 4564690.000 -640.000
21618600.000 4564835.000 -668.750
21618475.000 4564610.000 -706.250
21618775.000 4564542.500 -571.250
21617575.000 4564820.000 -1103.750
21618250.000 4564530.000 -772.500
21617575.000 4564820.000 -1103.750
21617650.000 4564670.000 -1037.500
21617025.000 4564947.500 -1251.250
21615900.000 4565202.500 -1543.750
21616550.000 4564925.000 -1332.500
21615900.000 4565202.500 -1543.750
21615800.000 4565095.000 -1527.500
21615800.000 4565095.000 -1527.500
21615700.000 4564987.500 -1511.250
21616075.000 4564902.500 -1413.750
21615700.000 4564987.500 -1511.250
21615600.000 4564880.000 -1495.000
21617800.000 4564370.000 -905.000
21617725.000 4564520.000 -971.250
21617500.000 4564327.500 -988.750
21617900.000 4564232.500 -863.750
21615850.000 4564710.000 -1431.250
21617200.000 4564285.000 -1072.500
21615500.000 4564787.500 -1508.750
21615400.000 4564695.000 -1522.500
21615500.000 4564787.500 -1508.750
21615400.000 4564695.000 -1522.500
21615300.000 4564602.500 -1536.250
21616100.000 4564540.000 -1367.500
21615300.000 4564602.500 -1536.250
21615200.000 4564510.000 -1550.000
21616350.000 4564370.000 -1303.750
21616600.000 4564200.000 -1240.000
21616900.000 4564242.500 -1156.250
21618200.000 4563820.000 -740.000
21616775.000 4564045.000 -1156.250
21618100.000 4563957.500 -781.250
21618100.000 4563957.500 -781.250
21618000.000 4564095.000 -822.500
21618000.000 4564095.000 -822.500
21617900.000 4564232.500 -863.750
21618225.000 4564165.000 -780.000
21618650.000 4563960.000 -655.000
21620200.000 4563800.000 -140.000
21619925.000 4564000.000 -220.000
21620025.000 4563737.500 -206.250
21620025.000 4563735.000 -206.250
21619850.000 4563675.000 -272.500
21619075.000 4563755.000 -530.000
21619675.000 4563612.500 -338.750
21619500.000 4563550.000 -405.000
21618375.000 4563645.000 -652.500
21619675.000 4563605.000 -338.750
21619500.000 4563540.000 -405.000
21619850.000 4563670.000 -272.500
21620200.000 4563492.500 -170.000
21620200.000 4563390.000 -180.000
21620200.000 4563595.000 -160.000
21620600.000 4563505.000 42.500
21620200.000 4563697.500 -150.000
21620400.000 4563652.500 -48.750
21621595.133 4563471.148 373.210
21621596.328 4563473.141 373.247
21621594.906 4563470.773 373.203
21621592.508 4563466.754 373.126
21621450.000 4563405.000 337.500
21621588.438 4563463.066 373.151
21621300.000 4563340.000 300.000
21621350.000 4563320.000 335.000
21620800.000 4563357.500 133.750
21621150.000 4563275.000 262.500
21621000.000 4563210.000 225.000
21620825.000 4563092.500 231.250
21621100.000 4563170.000 295.000
21620950.000 4563060.000 273.750
21621225.000 4563245.000 315.000
21621225.000 4563245.000 315.000
21621350.000 4563320.000 335.000
21621300.000 4563245.000 315.000
21621475.000 4563395.000 355.000
21621475.000 4563395.000 355.000
21621400.000 4563320.000 335.000
21621588.438 4563463.066 373.151
21621590.203 4563462.652 373.041
21621500.000 4563395.000 355.000
21621583.664 4563451.484 372.822
21621450.000 4563300.000 355.000
21621375.000 4563215.000 345.000
21621525.000 4563385.000 365.000
21621300.000 4563130.000 335.000
21621200.000 4563170.000 295.000
21621175.000 4563000.000 356.250
21621100.000 4563030.000 326.250
21621025.000 4563030.000 326.250
21621000.000 4562890.000 357.500
21621025.000 4563030.000 326.250
21620950.000 4562890.000 357.500
21620900.000 4562910.000 322.500
21620875.000 4563075.000 252.500
21620750.000 4562940.000 280.000
21620650.000 4562975.000 237.500
21620625.000 4562805.000 307.500
21620225.000 4563227.500 -72.500
21620250.000 4563065.000 35.000
21620475.000 4562857.500 243.750
21619900.000 4563140.000 -77.500
21620100.000 4562940.000 86.250
21619700.000 4563340.000 -241.250
21619200.000 4563330.000 -397.500
21619050.000 4563225.000 -393.750
21619350.000 4563435.000 -401.250
21619200.000 4563335.000 -397.500
21619350.000 4563442.500 -401.250
21618550.000 4563470.000 -565.000
21617750.000 4563700.000 -822.500
21617525.000 4563640.000 -863.750
21617975.000 4563760.000 -781.250
21616950.000 4563890.000 -1072.500
21616225.000 4564197.500 -1288.750
21615850.000 4564195.000 -1337.500
21615175.000 4564430.000 -1521.250
21615175.000 4564430.000 -1521.250
21615150.000 4564350.000 -1492.500
21615175.000 4564430.000 -1521.250
21615150.000 4564350.000 -1492.500
21615150.000 4564350.000 -1492.500
21615125.000 4564270.000 -1463.750
21615125.000 4564270.000 -1463.750
21615125.000 4564270.000 -1463.750
21615100.000 4564190.000 -1435.000
21615475.000 4564192.500 -1386.250
21617300.000 4563580.000 -905.000
21617125.000 4563735.000 -988.750
21618725.000 4563295.000 -477.500
21618900.000 4563120.000 -390.000
21619050.000 4563227.500 -393.750
21620300.000 4562740.000 250.000
21620275.000 4562902.500 142.500
21620500.000 4562670.000 335.000
21620723.539 4562625.293 398.336
21620763.703 4562650.445 396.667
21620826.609 4562689.836 394.053
21620850.000 4562760.000 371.250
21620865.672 4562732.586 392.637
21620875.000 4562750.000 388.750
21620865.672 4562732.586 392.637
21620875.000 4562750.000 388.750
21620950.000 4562890.000 357.500
21620888.773 4562737.379 391.568
21620900.000 4562750.000 388.750
21620891.391 4562737.941 391.441
21620905.234 4562747.906 390.845
21620942.273 4562774.551 389.249
21620994.000 4562811.758 387.020
21621050.000 4562870.000 377.500
21621603.336 4563478.676 373.165
21620325.000 4563910.000 -118.750
21619650.000 4564200.000 -300.000
21618125.000 4564427.500 -793.750
21619375.000 4564400.000 -380.000
21618450.000 4564485.000 -682.500
21619100.000 4564600.000 -460.000
21620500.000 4564402.500 -173.750
21619300.000 4564672.500 -477.500
21620725.000 4564350.000 -51.250
21620750.000 4564340.000 -48.750
21619250.000 4564805.000 -565.000
21619175.000 4564702.500 -512.500
21619000.000 4564750.000 -512.500
21618700.000 4564817.500 -647.500
21620800.000 4564440.000 -42.500
21620750.000 4564340.000 -48.750
21618025.000 4564450.000 -838.750
21617650.000 4564670.000 -1037.500
21617725.000 4564520.000 -971.250
21621612.250 4563484.699 373.009
21615675.000 4566025.000 -1745.000
21616725.000 4565772.500 -1468.750
21616200.000 4565990.000 -1555.000
21616650.000 4565885.000 -1457.500
21617200.000 4565750.000 -1200.000
21616350.000 4566050.000 -1495.000
21615450.000 4566180.000 -1815.000
21616575.000 4565997.500 -1446.250
21616500.000 4566110.000 -1435.000
21617400.000 4565795.000 -1060.000
21617500.000 4565675.000 -1080.000
21617600.000 4565840.000 -920.000
21617550.000 4565757.500 -1000.000
21617425.000 4566025.000 -976.250
21616600.000 4566227.500 -1362.500
21617600.000 4565972.500 -888.750
21617600.000 4565972.500 -888.750
21617600.000 4566105.000 -857.500
21617600.000 4566105.000 -857.500
21617250.000 4566210.000 -1032.500
21617600.000 4566237.500 -826.250
21616700.000 4566345.000 -1290.000
21616350.000 4566290.000 -1463.750
21617075.000 4566395.000 -1088.750
21616800.000 4566462.500 -1217.500
21617600.000 4566370.000 -795.000
21617600.000 4566237.500 -826.250
21616900.000 4566580.000 -1145.000
21617225.000 4566620.000 -1043.750
21616050.000 4566650.000 -1521.250
21616200.000 4566470.000 -1492.500
21615900.000 4566830.000 -1550.000
[...]
POINT_DATA 1279
COLOR_SCALARS GocadColor 4
1 0.498039 0.313726 1
1 0.498039 0.313726 1
1 0.498039 0.313726 1
1 0.498039 0.313726 1
1 0.498039 0.313726 1
1 0.498039 0.313726 1
1 0.498039 0.313726 1
1 0.498039 0.313726 1
1 0.498039 0.313726 1
1 0.498039 0.313726 1
1 0.498039 0.313726 1
1 0.498039 0.313726 1
1 0.498039 0.313726 1
1 0.498039 0.313726 1
1 0.498039 0.313726 1
1 0.498039 0.313726 1
1 0.498039 0.313726 1
1 0.498039 0.313726 1
1 0.498039 0.313726 1
1 0.498039 0.313726 1
1 0.498039 0.313726 1
1 0.498039 0.313726 1
1 0.498039 0.313726 1
1 0.498039 0.313726 1
1 0.498039 0.313726 1
1 0.498039 0.313726 1
1 0.498039 0.313726 1
1 0.498039 0.313726 1
1 0.498039 0.313726 1
1 0.498039 0.313726 1
1 0.498039 0.313726 1
1 0.498039 0.313726 1
1 0.498039 0.313726 1
1 0.498039 0.313726 1
1 0.498039 0.313726 1
1 0.498039 0.313726 1
1 0.498039 0.313726 1
1 0.498039 0.313726 1
1 0.498039 0.313726 1
1 0.498039 0.313726 1
1 0.498039 0.313726 1
1 0.498039 0.313726 1
1 0.498039 0.313726 1
1 0.498039 0.313726 1
1 0.498039 0.313726 1
1 0.498039 0.313726 1
1 0.498039 0.313726 1
1 0.498039 0.313726 1
1 0.498039 0.313726 1
1 0.498039 0.313726 1
1 0.498039 0.313726 1
1 0.498039 0.313726 1
1 0.498039 0.313726 1
1 0.498039 0.313726 1
1 0.498039 0.313726 1
1 0.498039 0.313726 1
1 0.498039 0.313726 1
1 0.498039 0.313726 1
1 0.498039 0.313726 1
1 0.498039 0.313726 1
1 0.498039 0.313726 1
1 0.498039 0.313726 1
1 0.498039 0.313726 1
1 0.498039 0.313726 1
1 0.498039 0.313726 1
1 0.498039 0.313726 1
1 0.498039 0.313726 1
1 0.498039 0.313726 1
1 0.498039 0.313726 1
1 0.498039 0.313726 1
1 0.498039 0.313726 1
1 0.498039 0.313726 1
1 0.498039 0.313726 1
1 0.498039 0.313726 1
1 0.498039 0.313726 1
1 0.498039 0.313726 1
1 0.498039 0.313726 1
1 0.498039 0.313726 1
1 0.498039 0.313726 1
1 0.498039 0.313726 1
1 0.498039 0.313726 1
1 0.498039 0.313726 1
1 0.498039 0.313726 1
1 0.498039 0.313726 1
1 0.498039 0.313726 1
1 0.498039 0.313726 1
1 0.498039 0.313726 1
1 0.498039 0.313726 1
1 0.498039 0.313726 1
1 0.498039 0.313726 1
1 0.498039 0.313726 1
1 0.498039 0.313726 1
1 0.498039 0.313726 1
1 0.498039 0.313726 1
1 0.498039 0.313726 1
1 0.498039 0.313726 1
1 0.498039 0.313726 1
1 0.498039 0.313726 1
1 0.498039 0.313726 1
1 0.498039 0.313726 1
1 0.498039 0.313726 1
1 0.498039 0.313726 1
1 0.498039 0.313726 1
1 0.498039 0.313726 1
1 0.498039 0.313726 1
1 0.498039 0.313726 1
1 0.498039 0.313726 1
1 0.498039 0.313726 1
1 0.498039 0.313726 1
1 0.498039 0.313726 1
1 0.498039 0.313726 1
1 0.498039 0.313726 1
1 0.498039 0.313726 1
1 0.498039 0.313726 1
1 0.498039 0.313726 1
1 0.498039 0.313726 1
1 0.498039 0.313726 1
1 0.498039 0.313726 1
1 0.498039 0.313726 1
1 0.498039 0.313726 1
1 0.498039 0.313726 1
1 0.498039 0.313726 1
1 0.498039 0.313726 1
1 0.498039 0.313726 1
1 0.498039 0.313726 1
1 0.498039 0.313726 1
1 0.498039 0.313726 1
1 0.498039 0.313726 1
1 0.498039 0.313726 1
1 0.498039 0.313726 1
1 0.498039 0.313726 1
1 0.498039 0.313726 1
1 0.498039 0.313726 1
1 0.498039 0.313726 1
1 0.498039 0.313726 1
1 0.498039 0.313726 1
1 0.498039 0.313726 1
1 0.498039 0.313726 1
1 0.498039 0.313726 1
1 0.498039 0.313726 1
1 0.498039 0.313726 1
1 0.498039 0.313726 1
1 0.498039 0.313726 1
1 0.498039 0.313726 1
1 0.498039 0.313726 1
1 0.498039 0.313726 1
1 0.498039 0.313726 1
1 0.498039 0.313726 1
1 0.498039 0.313726 1
1 0.498039 0.313726 1
1 0.498039 0.313726 1
1 0.498039 0.313726 1
1 0.498039 0.313726 1
1 0.498039 0.313726 1
1 0.498039 0.313726 1
1 0.498039 0.313726 1
1 0.498039 0.313726 1
1 0.498039 0.313726 1
1 0.498039 0.313726 1
1 0.498039 0.313726 1
1 0.498039 0.313726 1
1 0.498039 0.313726 1
1 0.498039 0.313726 1
1 0.498039 0.313726 1
1 0.498039 0.313726 1
1 0.498039 0.313726 1
1 0.498039 0.313726 1
1 0.498039 0.313726 1
1 0.498039 0.313726 1
1 0.498039 0.313726 1
1 0.498039 0.313726 1
1 0.498039 0.313726 1
1 0.498039 0.313726 1
1 0.498039 0.313726 1
1 0.498039 0.313726 1
1 0.498039 0.313726 1
1 0.498039 0.313726 1
1 0.498039 0.313726 1
1 0.498039 0.313726 1
1 0.498039 0.313726 1
1 0.498039 0.313726 1
1 0.498039 0.313726 1
1 0.498039 0.313726 1
1 0.498039 0.313726 1
1 0.498039 0.313726 1
1 0.498039 0.313726 1
1 0.498039 0.313726 1
1 0.498039 0.313726 1
1 0.498039 0.313726 1
1 0.498039 0.313726 1
1 0.498039 0.313726 1
1 0.498039 0.313726 1
1 0.498039 0.313726 1
1 0.498039 0.313726 1
1 0.498039 0.313726 1
1 0.498039 0.313726 1
1 0.498039 0.313726 1
1 0.498039 0.313726 1
1 0.498039 0.313726 1
1 0.498039 0.313726 1
1 0.498039 0.313726 1
1 0.498039 0.313726 1
1 0.498039 0.313726 1
1 0.498039 0.313726 1
1 0.498039 0.313726 1
1 0.498039 0.313726 1
1 0.498039 0.313726 1
1 0.498039 0.313726 1
1 0.498039 0.313726 1
1 0.498039 0.313726 1
1 0.498039 0.313726 1
1 0.498039 0.313726 1
1 0.498039 0.313726 1
1 0.498039 0.313726 1
1 0.498039 0.313726 1
1 0.498039 0.313726 1
1 0.498039 0.313726 1
1 0.498039 0.313726 1
1 0.498039 0.313726 1
1 0.498039 0.313726 1
1 0.498039 0.313726 1
1 0.498039 0.313726 1
1 0.498039 0.313726 1
1 0.498039 0.313726 1
1 0.498039 0.313726 1
1 0.498039 0.313726 1
1 0.498039 0.313726 1
1 0.498039 0.313726 1
1 0.498039 0.313726 1
1 0.498039 0.313726 1
1 0.498039 0.313726 1
1 0.498039 0.313726 1
1 0.498039 0.313726 1
1 0.498039 0.313726 1
1 0.498039 0.313726 1
1 0.498039 0.313726 1
1 0.498039 0.313726 1
1 0.498039 0.313726 1
1 0.498039 0.313726 1
1 0.498039 0.313726 1
1 0.498039 0.313726 1
1 0.498039 0.313726 1
1 0.498039 0.313726 1
1 0.498039 0.313726 1
1 0.498039 0.313726 1
1 0.498039 0.313726 1
1 0.498039 0.313726 1
1 0.498039 0.313726 1
1 0.498039 0.313726 1
1 0.498039 0.313726 1
1 0.498039 0.313726 1
1 0.498039 0.313726 1
1 0.498039 0.313726 1
1 0.498039 0.313726 1
1 0.498039 0.313726 1
1 0.498039 0.313726 1
1 0.498039 0.313726 1
1 0.498039 0.313726 1
1 0.498039 0.313726 1
1 0.498039 0.313726 1
1 0.498039 0.313726 1
1 0.498039 0.313726 1
1 0.498039 0.313726 1
1 0.498039 0.313726 1
1 0.498039 0.313726 1
1 0.498039 0.313726 1
1 0.498039 0.313726 1
1 0.498039 0.313726 1
1 0.498039 0.313726 1
1 0.498039 0.313726 1
1 0.498039 0.313726 1
1 0.498039 0.313726 1
1 0.498039 0.313726 1
1 0.498039 0.313726 1
1 0.498039 0.313726 1
1 0.498039 0.313726 1
1 0.498039 0.313726 1
1 0.498039 0.313726 1
1 0.498039 0.313726 1
1 0.498039 0.313726 1
1 0.498039 0.313726 1
1 0.498039 0.313726 1
1 0.498039 0.313726 1
1 0.498039 0.313726 1
1 0.498039 0.313726 1
1 0.498039 0.313726 1
1 0.498039 0.313726 1
1 0.498039 0.313726 1
1 0.498039 0.313726 1
1 0.498039 0.313726 1
1 0.498039 0.313726 1
1 0.498039 0.313726 1
1 0.498039 0.313726 1
1 0.498039 0.313726 1
1 0.498039 0.313726 1
1 0.498039 0.313726 1
1 0.498039 0.313726 1
1 0.498039 0.313726 1
1 0.498039 0.313726 1
1 0.498039 0.313726 1
1 0.498039 0.313726 1
1 0.498039 0.313726 1
1 0.498039 0.313726 1
1 0.498039 0.313726 1
1 0.498039 0.313726 1
1 0.498039 0.313726 1
1 0.498039 0.313726 1
1 0.498039 0.313726 1
1 0.498039 0.313726 1
1 0.498039 0.313726 1
1 0.498039 0.313726 1
1 0.498039 0.313726 1
1 0.498039 0.313726 1
1 0.498039 0.313726 1
1 0.498039 0.313726 1
1 0.498039 0.313726 1
1 0.498039 0.313726 1
1 0.498039 0.313726 1
1 0.498039 0.313726 1
1 0.498039 0.313726 1
1 0.498039 0.313726 1
1 0.498039 0.313726 1
1 0.498039 0.313726 1
1 0.498039 0.313726 1
1 0.498039 0.313726 1
1 0.498039 0.313726 1
1 0.498039 0.313726 1
1 0.498039 0.313726 1
1 0.498039 0.313726 1
1 0.498039 0.313726 1
1 0.498039 0.313726 1
1 0.498039 0.313726 1
1 0.498039 0.313726 1
1 0.498039 0.313726 1
1 0.498039 0.313726 1
1 0.498039 0.313726 1
1 0.498039 0.313726 1
1 0.498039 0.313726 1
1 0.498039 0.313726 1
1 0.498039 0.313726 1
1 0.498039 0.313726 1
1 0.498039 0.313726 1
1 0.498039 0.313726 1
1 0.498039 0.313726 1
1 0.498039 0.313726 1
1 0.498039 0.313726 1
1 0.498039 0.313726 1
1 0.498039 0.313726 1
1 0.498039 0.313726 1
1 0.498039 0.313726 1
1 0.498039 0.313726 1
1 0.498039 0.313726 1
1 0.498039 0.313726 1
1 0.498039 0.313726 1
1 0.498039 0.313726 1
1 0.498039 0.313726 1
1 0.498039 0.313726 1
1 0.498039 0.313726 1
1 0.498039 0.313726 1
1 0.498039 0.313726 1
1 0.498039 0.313726 1
1 0.498039 0.313726 1
1 0.498039 0.313726 1
1 0.498039 0.313726 1
1 0.498039 0.313726 1
1 0.498039 0.313726 1
1 0.498039 0.313726 1
1 0.498039 0.313726 1
1 0.498039 0.313726 1
1 0.498039 0.313726 1
1 0.498039 0.313726 1
1 0.498039 0.313726 1
1 0.498039 0.313726 1
1 0.498039 0.313726 1
1 0.498039 0.313726 1
1 0.498039 0.313726 1
1 0.498039 0.313726 1
1 0.498039 0.313726 1
1 0.498039 0.313726 1
1 0.498039 0.313726 1
1 0.498039 0.313726 1
1 0.498039 0.313726 1
1 0.498039 0.313726 1
1 0.498039 0.313726 1
1 0.498039 0.313726 1
1 0.498039 0.313726 1
1 0.498039 0.313726 1
1 0.498039 0.313726 1
1 0.498039 0.313726 1
1 0.498039 0.313726 1
1 0.498039 0.313726 1
1 0.498039 0.313726 1
1 0.498039 0.313726 1
1 0.498039 0.313726 1
1 0.498039 0.313726 1
1 0.498039 0.313726 1
1 0.498039 0.313726 1
1 0.498039 0.313726 1
1 0.498039 0.313726 1
1 0.498039 0.313726 1
1 0.498039 0.313726 1
1 0.498039 0.313726 1
1 0.498039 0.313726 1
1 0.498039 0.313726 1
1 0.498039 0.313726 1
1 0.498039 0.313726 1
1 0.498039 0.313726 1
1 0.498039 0.313726 1
1 0.498039 0.313726 1
1 0.498039 0.313726 1
1 0.498039 0.313726 1
1 0.498039 0.313726 1
1 0.498039 0.313726 1
1 0.498039 0.313726 1
1 0.498039 0.313726 1
1 0.498039 0.313726 1
1 0.498039 0.313726 1
1 0.498039 0.313726 1
1 0.498039 0.313726 1
1 0.498039 0.313726 1
1 0.498039 0.313726 1
1 0.498039 0.313726 1
1 0.498039 0.313726 1
1 0.498039 0.313726 1
1 0.498039 0.313726 1
1 0.498039 0.313726 1
1 0.498039 0.313726 1
1 0.498039 0.313726 1
1 0.498039 0.313726 1
1 0.498039 0.313726 1
1 0.498039 0.313726 1
1 0.498039 0.313726 1
1 0.498039 0.313726 1
1 0.498039 0.313726 1
1 0.498039 0.313726 1
1 0.498039 0.313726 1
1 0.498039 0.313726 1
1 0.498039 0.313726 1
1 0.498039 0.313726 1
1 0.498039 0.313726 1
1 0.498039 0.313726 1
1 0.498039 0.313726 1
1 0.498039 0.313726 1
1 0.498039 0.313726 1
1 0.498039 0.313726 1
1 0.498039 0.313726 1
1 0.498039 0.313726 1
1 0.498039 0.313726 1
1 0.498039 0.313726 1
1 0.498039 0.313726 1
1 0.498039 0.313726 1
1 0.498039 0.313726 1
1 0.498039 0.313726 1
1 0.498039 0.313726 1
1 0.498039 0.313726 1
1 0.498039 0.313726 1
1 0.498039 0.313726 1
1 0.498039 0.313726 1
1 0.498039 0.313726 1
1 0.498039 0.313726 1
1 0.498039 0.313726 1
1 0.498039 0.313726 1
1 0.498039 0.313726 1
1 0.498039 0.313726 1
1 0.498039 0.313726 1
1 0.498039 0.313726 1
1 0.498039 0.313726 1
1 0.498039 0.313726 1
1 0.498039 0.313726 1
1 0.498039 0.313726 1
1 0.498039 0.313726 1
1 0.498039 0.313726 1
1 0.498039 0.313726 1
1 0.498039 0.313726 1
1 0.498039 0.313726 1
1 0.498039 0.313726 1
1 0.498039 0.313726 1
1 0.498039 0.313726 1
1 0.498039 0.313726 1
1 0.498039 0.313726 1
1 0.498039 0.313726 1
1 0.498039 0.313726 1
1 0.498039 0.313726 1
1 0.498039 0.313726 1
1 0.498039 0.313726 1
1 0.498039 0.313726 1
1 0.498039 0.313726 1
1 0.498039 0.313726 1
1 0.498039 0.313726 1
1 0.498039 0.313726 1
1 0.498039 0.313726 1
1 0.498039 0.313726 1
1 0.498039 0.313726 1
1 0.498039 0.313726 1
1 0.498039 0.313726 1
1 0.498039 0.313726 1
1 0.498039 0.313726 1
1 0.498039 0.313726 1
1 0.498039 0.313726 1
1 0.498039 0.313726 1
1 0.498039 0.313726 1
1 0.498039 0.313726 1
1 0.498039 0.313726 1
1 0.498039 0.313726 1
1 0.498039 0.313726 1
1 0.498039 0.313726 1
1 0.498039 0.313726 1
1 0.498039 0.313726 1
1 0.498039 0.313726 1
1 0.498039 0.313726 1
1 0.498039 0.313726 1
1 0.498039 0.313726 1
1 0.498039 0.313726 1
1 0.498039 0.313726 1
1 0.498039 0.313726 1
1 0.498039 0.313726 1
1 0.498039 0.313726 1
1 0.498039 0.313726 1
1 0.498039 0.313726 1
1 0.498039 0.313726 1
1 0.498039 0.313726 1
1 0.498039 0.313726 1
1 0.498039 0.313726 1
1 0.498039 0.313726 1
1 0.498039 0.313726 1
1 0.498039 0.313726 1
1 0.498039 0.313726 1
1 0.498039 0.313726 1
1 0.498039 0.313726 1
1 0.498039 0.313726 1
1 0.498039 0.313726 1
1 0.498039 0.313726 1
1 0.498039 0.313726 1
1 0.498039 0.313726 1
1 0.498039 0.313726 1
1 0.498039 0.313726 1
1 0.498039 0.313726 1
1 0.498039 0.313726 1
1 0.498039 0.313726 1
1 0.498039 0.313726 1
1 0.498039 0.313726 1
1 0.498039 0.313726 1
1 0.498039 0.313726 1
1 0.498039 0.313726 1
1 0.498039 0.313726 1
1 0.498039 0.313726 1
1 0.498039 0.313726 1
1 0.498039 0.313726 1
1 0.498039 0.313726 1
1 0.498039 0.313726 1
1 0.498039 0.313726 1
1 0.498039 0.313726 1
1 0.498039 0.313726 1
1 0.498039 0.313726 1
1 0.498039 0.313726 1
1 0.498039 0.313726 1
1 0.498039 0.313726 1
1 0.498039 0.313726 1
1 0.498039 0.313726 1
1 0.498039 0.313726 1
1 0.498039 0.313726 1
1 0.498039 0.313726 1
1 0.498039 0.313726 1
1 0.498039 0.313726 1
1 0.498039 0.313726 1
1 0.498039 0.313726 1
1 0.498039 0.313726 1
1 0.498039 0.313726 1
1 0.498039 0.313726 1
1 0.498039 0.313726 1
1 0.498039 0.313726 1
1 0.498039 0.313726 1
1 0.498039 0.313726 1
1 0.498039 0.313726 1
1 0.498039 0.313726 1
1 0.498039 0.313726 1
1 0.498039 0.313726 1
1 0.498039 0.313726 1
1 0.498039 0.313726 1
1 0.498039 0.313726 1
1 0.498039 0.313726 1
1 0.498039 0.313726 1
1 0.498039 0.313726 1
1 0.498039 0.313726 1
1 0.498039 0.313726 1
1 0.498039 0.313726 1
1 0.498039 0.313726 1
1 0.498039 0.313726 1
1 0.498039 0.313726 1
1 0.498039 0.313726 1
1 0.498039 0.313726 1
1 0.498039 0.313726 1
1 0.498039 0.313726 1
1 0.498039 0.313726 1
1 0.498039 0.313726 1
1 0.498039 0.313726 1
1 0.498039 0.313726 1
1 0.498039 0.313726 1
1 0.498039 0.313726 1
1 0.498039 0.313726 1
1 0.498039 0.313726 1
1 0.498039 0.313726 1
1 0.498039 0.313726 1
1 0.498039 0.313726 1
1 0.498039 0.313726 1
1 0.498039 0.313726 1
1 0.498039 0.313726 1
1 0.498039 0.313726 1
1 0.498039 0.313726 1
1 0.498039 0.313726 1
1 0.498039 0.313726 1
1 0.498039 0.313726 1
1 0.498039 0.313726 1
1 0.498039 0.313726 1
1 0.498039 0.313726 1
1 0.498039 0.313726 1
1 0.498039 0.313726 1
1 0.498039 0.313726 1
1 0.498039 0.313726 1
1 0.498039 0.313726 1
1 0.498039 0.313726 1
1 0.498039 0.313726 1
1 0.498039 0.313726 1
1 0.498039 0.313726 1
1 0.498039 0.313726 1
1 0.498039 0.313726 1
1 0.498039 0.313726 1
1 0.498039 0.313726 1
1 0.498039 0.313726 1
1 0.498039 0.313726 1
1 0.498039 0.313726 1
1 0.498039 0.313726 1
1 0.498039 0.313726 1
1 0.498039 0.313726 1
1 0.498039 0.313726 1
1 0.498039 0.313726 1
1 0.498039 0.313726 1
1 0.498039 0.313726 1
1 0.498039 0.313726 1
1 0.498039 0.313726 1
1 0.498039 0.313726 1
1 0.498039 0.313726 1
1 0.498039 0.313726 1
1 0.498039 0.313726 1
1 0.498039 0.313726 1
1 0.498039 0.313726 1
1 0.498039 0.313726 1
1 0.498039 0.313726 1
1 0.498039 0.313726 1
1 0.498039 0.313726 1
1 0.498039 0.313726 1
1 0.498039 0.313726 1
1 0.498039 0.313726 1
1 0.498039 0.313726 1
1 0.498039 0.313726 1
1 0.498039 0.313726 1
1 0.498039 0.313726 1
1 0.498039 0.313726 1
1 0.498039 0.313726 1
1 0.498039 0.313726 1
1 0.498039 0.313726 1
1 0.498039 0.313726 1
1 0.498039 0.313726 1
1 0.498039 0.313726 1
1 0.498039 0.313726 1
1 0.498039 0.313726 1
1 0.498039 0.313726 1
1 0.498039 0.313726 1
1 0.498039 0.313726 1
1 0.498039 0.313726 1
1 0.498039 0.313726 1
1 0.498039 0.313726 1
1 0.498039 0.313726 1
1 0.498039 0.313726 1
1 0.498039 0.313726 1
1 0.498039 0.313726 1
1 0.498039 0.313726 1
1 0.498039 0.313726 1
1 0.498039 0.313726 1
1 0.498039 0.313726 1
1 0.498039 0.313726 1
1 0.498039 0.313726 1
1 0.498039 0.313726 1
1 0.498039 0.313726 1
1 0.498039 0.313726 1
1 0.498039 0.313726 1
1 0.498039 0.313726 1
1 0.498039 0.313726 1
1 0.498039 0.313726 1
1 0.498039 0.313726 1
1 0.498039 0.313726 1
1 0.498039 0.313726 1
1 0.498039 0.313726 1
1 0.498039 0.313726 1
1 0.498039 0.313726 1
1 0.498039 0.313726 1
1 0.498039 0.313726 1
1 0.498039 0.313726 1
1 0.498039 0.313726 1
1 0.498039 0.313726 1
1 0.498039 0.313726 1
1 0.498039 0.313726 1
1 0.498039 0.313726 1
1 0.498039 0.313726 1
1 0.498039 0.313726 1
1 0.498039 0.313726 1
1 0.498039 0.313726 1
1 0.498039 0.313726 1
1 0.498039 0.313726 1
1 0.498039 0.313726 1
1 0.498039 0.313726 1
1 0.498039 0.313726 1
1 0.498039 0.313726 1
1 0.498039 0.313726 1
1 0.498039 0.313726 1
1 0.498039 0.313726 1
1 0.498039 0.313726 1
1 0.498039 0.313726 1
1 0.498039 0.313726 1
1 0.498039 0.313726 1
1 0.498039 0.313726 1
1 0.498039 0.313726 1
1 0.498039 0.313726 1
1 0.498039 0.313726 1
1 0.498039 0.313726 1
1 0.498039 0.313726 1
1 0.498039 0.313726 1
1 0.498039 0.313726 1
1 0.498039 0.313726 1
1 0.498039 0.313726 1
1 0.498039 0.313726 1
1 0.498039 0.313726 1
1 0.498039 0.313726 1
1 0.498039 0.313726 1
1 0.498039 0.313726 1
1 0.498039 0.313726 1
1 0.498039 0.313726 1
1 0.498039 0.313726 1
1 0.498039 0.313726 1
1 0.498039 0.313726 1
1 0.498039 0.313726 1
1 0.498039 0.313726 1
1 0.498039 0.313726 1
1 0.498039 0.313726 1
1 0.498039 0.313726 1
1 0.498039 0.313726 1
1 0.498039 0.313726 1
1 0.498039 0.313726 1
1 0.498039 0.313726 1
1 0.498039 0.313726 1
1 0.498039 0.313726 1
1 0.498039 0.313726 1
1 0.498039 0.313726 1
1 0.498039 0.313726 1
1 0.498039 0.313726 1
1 0.498039 0.313726 1
1 0.498039 0.313726 1
1 0.498039 0.313726 1
1 0.498039 0.313726 1
1 0.498039 0.313726 1
1 0.498039 0.313726 1
1 0.498039 0.313726 1
1 0.498039 0.313726 1
1 0.498039 0.313726 1
1 0.498039 0.313726 1
1 0.498039 0.313726 1
1 0.498039 0.313726 1
1 0.498039 0.313726 1
1 0.498039 0.313726 1
1 0.498039 0.313726 1
1 0.498039 0.313726 1
1 0.498039 0.313726 1
1 0.498039 0.313726 1
1 0.498039 0.313726 1
1 0.498039 0.313726 1
1 0.498039 0.313726 1
1 0.498039 0.313726 1
1 0.498039 0.313726 1
1 0.498039 0.313726 1
1 0.498039 0.313726 1
1 0.498039 0.313726 1
1 0.498039 0.313726 1
1 0.498039 0.313726 1
1 0.498039 0.313726 1
1 0.498039 0.313726 1
1 0.498039 0.313726 1
1 0.498039 0.313726 1
1 0.498039 0.313726 1
1 0.498039 0.313726 1
1 0.498039 0.313726 1
1 0.498039 0.313726 1
1 0.498039 0.313726 1
1 0.498039 0.313726 1
1 0.498039 0.313726 1
1 0.498039 0.313726 1
1 0.498039 0.313726 1
1 0.498039 0.313726 1
1 0.498039 0.313726 1
1 0.498039 0.313726 1
1 0.498039 0.313726 1
1 0.498039 0.313726 1
1 0.498039 0.313726 1
1 0.498039 0.313726 1
1 0.498039 0.313726 1
1 0.498039 0.313726 1
1 0.498039 0.313726 1
1 0.498039 0.313726 1
1 0.498039 0.313726 1
1 0.498039 0.313726 1
1 0.498039 0.313726 1
1 0.498039 0.313726 1
1 0.498039 0.313726 1
1 0.498039 0.313726 1
1 0.498039 0.313726 1
1 0.498039 0.313726 1
1 0.498039 0.313726 1
1 0.498039 0.313726 1
1 0.498039 0.313726 1
1 0.498039 0.313726 1
1 0.498039 0.313726 1
1 0.498039 0.313726 1
1 0.498039 0.313726 1
1 0.498039 0.313726 1
1 0.498039 0.313726 1
1 0.498039 0.313726 1
1 0.498039 0.313726 1
1 0.498039 0.313726 1
1 0.498039 0.313726 1
1 0.498039 0.313726 1
1 0.498039 0.313726 1
1 0.498039 0.313726 1
1 0.498039 0.313726 1
1 0.498039 0.313726 1
1 0.498039 0.313726 1
1 0.498039 0.313726 1
1 0.498039 0.313726 1
1 0.498039 0.313726 1
1 0.498039 0.313726 1
1 0.498039 0.313726 1
1 0.498039 0.313726 1
1 0.498039 0.313726 1
1 0.498039 0.313726 1
1 0.498039 0.313726 1
1 0.498039 0.313726 1
1 0.498039 0.313726 1
1 0.498039 0.313726 1
1 0.498039 0.313726 1
1 0.498039 0.313726 1
1 0.498039 0.313726 1
1 0.498039 0.313726 1
1 0.498039 0.313726 1
1 0.498039 0.313726 1
1 0.498039 0.313726 1
1 0.498039 0.313726 1
1 0.498039 0.313726 1
1 0.498039 0.313726 1
1 0.498039 0.313726 1
1 0.498039 0.313726 1
1 0.498039 0.313726 1
1 0.498039 0.313726 1
1 0.498039 0.313726 1
1 0.498039 0.313726 1
1 0.498039 0.313726 1
1 0.498039 0.313726 1
1 0.498039 0.313726 1
1 0.498039 0.313726 1
1 0.498039 0.313726 1
1 0.498039 0.313726 1
1 0.498039 0.313726 1
1 0.498039 0.313726 1
1 0.498039 0.313726 1
1 0.498039 0.313726 1
1 0.498039 0.313726 1
1 0.498039 0.313726 1
1 0.498039 0.313726 1
1 0.498039 0.313726 1
1 0.498039 0.313726 1
1 0.498039 0.313726 1
1 0.498039 0.313726 1
1 0.498039 0.313726 1
1 0.498039 0.313726 1
1 0.498039 0.313726 1
1 0.498039 0.313726 1
1 0.498039 0.313726 1
1 0.498039 0.313726 1
1 0.498039 0.313726 1
1 0.498039 0.313726 1
1 0.498039 0.313726 1
1 0.498039 0.313726 1
1 0.498039 0.313726 1
1 0.498039 0.313726 1
1 0.498039 0.313726 1
1 0.498039 0.313726 1
1 0.498039 0.313726 1
1 0.498039 0.313726 1
1 0.498039 0.313726 1
1 0.498039 0.313726 1
1 0.498039 0.313726 1
1 0.498039 0.313726 1
1 0.498039 0.313726 1
1 0.498039 0.313726 1
1 0.498039 0.313726 1
1 0.498039 0.313726 1
1 0.498039 0.313726 1
1 0.498039 0.313726 1
1 0.498039 0.313726 1
1 0.498039 0.313726 1