# vtk DataFile Version 3.0
Gocad TSurf to VTK
ASCII
DATASET POLYDATA
POINTS 688 float
21543025.000 4560810.000 -365.000
21543100.000 4560710.000 -340.000
21543175.000 4560877.500 -376.250
21543300.000 4560800.000 -355.000
21543050.000 4560955.000 -397.500
21542575.000 4560682.500 -335.000
21542650.000 4560825.000 -370.000
21542500.000 4560540.000 -300.000
21542450.000 4560645.000 -323.750
21542400.000 4560750.000 -347.500
21541775.000 4560442.500 -323.750
21541950.000 4560615.000 -347.500
21541600.000 4560270.000 -300.000
21541550.000 4560367.500 -303.750
21541500.000 4560465.000 -307.500
21541425.000 4560320.000 -282.500
21540900.000 4560050.000 -260.000
21540900.000 4560155.000 -252.500
21541250.000 4560370.000 -265.000
21540900.000 4560155.000 -252.500
21540900.000 4560260.000 -245.000
21540525.000 4560027.500 -200.000
21540650.000 4560175.000 -210.000
21540400.000 4559880.000 -190.000
21540900.000 4560260.000 -245.000
21540775.000 4560322.500 -220.000
21540900.000 4560365.000 -237.500
21540900.000 4560365.000 -237.500
21540900.000 4560470.000 -230.000
21541075.000 4560420.000 -247.500
21541400.000 4560660.000 -315.000
21541450.000 4560562.500 -311.250
21541075.000 4560680.000 -247.500
21541450.000 4560822.500 -311.250
21542125.000 4561047.500 -371.250
21541250.000 4560890.000 -265.000
21541500.000 4560985.000 -307.500
21541950.000 4561135.000 -347.500
21541425.000 4561100.000 -282.500
21541550.000 4561147.500 -303.750
21541775.000 4561222.500 -323.750
21541600.000 4561310.000 -300.000
21542200.000 4561520.000 -385.000
21542225.000 4561380.000 -387.500
21541800.000 4561570.000 -303.750
21542250.000 4561727.500 -367.500
21542900.000 4561730.000 -465.000
21542000.000 4561830.000 -307.500
21542300.000 4561935.000 -350.000
21542775.000 4561885.000 -427.500
21542200.000 4562090.000 -311.250
21542350.000 4562142.500 -332.500
21542650.000 4562040.000 -390.000
21542400.000 4562350.000 -315.000
21542525.000 4562195.000 -352.500
21542900.000 4562530.000 -410.000
21542900.000 4562330.000 -423.750
21542875.000 4562660.000 -325.000
21543250.000 4562795.000 -396.250
21543800.000 4562830.000 -425.000
21543350.000 4562970.000 -335.000
21543600.000 4563060.000 -382.500
21543925.000 4563020.000 -407.500
21543825.000 4563280.000 -345.000
21543950.000 4563325.000 -368.750
21544050.000 4563210.000 -390.000
21544300.000 4563590.000 -355.000
21544175.000 4563400.000 -372.500
21544425.000 4563477.500 -386.250
21544550.000 4563365.000 -417.500
21544950.000 4563650.000 -450.000
21544900.000 4563480.000 -460.000
21545000.000 4563820.000 -440.000
21545200.000 4563737.500 -460.000
21544975.000 4563915.000 -331.250
21545500.000 4564087.500 -395.000
21546000.000 4564160.000 -495.000
21545650.000 4564240.000 -307.500
21546000.000 4564355.000 -350.000
21546250.000 4564342.500 -436.250
21546325.000 4564565.000 -283.750
21546500.000 4564622.500 -305.000
21546500.000 4564525.000 -377.500
21547000.000 4564890.000 -260.000
21546750.000 4564707.500 -318.750
21546975.000 4564785.000 -315.000
21546950.000 4564680.000 -370.000
21547175.000 4564855.000 -287.500
21547600.000 4565110.000 -220.000
21547625.000 4565020.000 -257.500
21548325.000 4565505.000 -201.250
21548775.000 4565670.000 -171.250
21548100.000 4565270.000 -230.000
21549650.000 4566120.000 -142.500
21549950.000 4566230.000 -122.500
21549150.000 4565790.000 -178.750
21550975.000 4566735.000 -83.750
21551125.000 4566790.000 -73.750
21550200.000 4566310.000 -127.500
21552300.000 4567350.000 -25.000
21551250.000 4566830.000 -76.250
21551375.000 4566877.500 -90.000
21550450.000 4566405.000 -155.000
21549525.000 4565932.500 -220.000
21550700.000 4566510.000 -170.000
21549900.000 4566090.000 -242.500
21551500.000 4566930.000 -97.500
21551100.000 4566645.000 -115.000
21551700.000 4566997.500 -70.000
21551875.000 4567062.500 -45.000
21551450.000 4566775.000 -65.000
21551025.000 4566487.500 -85.000
21551900.000 4566940.000 -32.500
21551700.000 4566735.000 -36.250
21552100.000 4567145.000 -28.750
21552300.000 4567085.000 -25.000
21552300.000 4567217.500 -25.000
21552300.000 4567217.500 -25.000
21552300.000 4567085.000 -25.000
21552475.000 4567282.500 -28.750
21552300.000 4566952.500 -25.000
21552300.000 4566952.500 -25.000
21552650.000 4567215.000 -32.500
21552300.000 4566820.000 -25.000
21552825.000 4567147.500 -36.250
21551500.000 4566530.000 -40.000
21551700.000 4566467.500 -53.750
21550600.000 4566200.000 -105.000
21550825.000 4566150.000 -105.000
21550500.000 4566292.500 -160.000
21549900.000 4565940.000 -205.000
21550100.000 4565887.500 -183.750
21549100.000 4565670.000 -315.000
21549775.000 4565780.000 -252.500
21548600.000 4565460.000 -285.000
21549000.000 4565517.500 -346.250
21548250.000 4565217.500 -282.500
21548125.000 4565175.000 -261.250
21548625.000 4565360.000 -323.750
21548400.000 4565165.000 -335.000
21548900.000 4565365.000 -377.500
21548650.000 4565260.000 -362.500
21549250.000 4565485.000 -355.000
21549175.000 4565577.500 -335.000
21549325.000 4565392.500 -375.000
21549525.000 4565460.000 -347.500
21548800.000 4565212.500 -408.750
21549400.000 4565300.000 -395.000
21548700.000 4565060.000 -440.000
21548675.000 4565160.000 -401.250
21549325.000 4565120.000 -388.750
21548800.000 4564940.000 -422.500
21549450.000 4565167.500 -351.250
21549500.000 4565035.000 -307.500
21549900.000 4565310.000 -197.500
21549800.000 4565130.000 -205.000
21550000.000 4565490.000 -190.000
21550025.000 4565352.500 -180.000
21549975.000 4565602.500 -193.750
21550500.000 4565782.500 -141.250
21549650.000 4565620.000 -300.000
21549950.000 4565715.000 -197.500
21549925.000 4565827.500 -201.250
21550300.000 4565835.000 -162.500
21550625.000 4566082.500 -108.750
21550650.000 4565965.000 -112.500
21550675.000 4565847.500 -116.250
21551050.000 4566100.000 -105.000
21551500.000 4566397.500 -56.250
21551275.000 4566050.000 -105.000
21551500.000 4566265.000 -72.500
21550700.000 4565730.000 -120.000
21551500.000 4566000.000 -105.000
21550550.000 4565532.500 -127.500
21550800.000 4565615.000 -130.000
21550900.000 4565500.000 -140.000
21551400.000 4565817.500 -118.750
21551300.000 4565635.000 -132.500
21551625.000 4565892.500 -116.250
21551750.000 4565785.000 -127.500
21552225.000 4566102.500 -108.750
21552150.000 4565925.000 -122.500
21552300.000 4566280.000 -95.000
21552425.000 4566167.500 -118.750
21552100.000 4566342.500 -81.250
21552300.000 4566415.000 -77.500
21551500.000 4566132.500 -88.750
21551900.000 4566405.000 -67.500
21552300.000 4566685.000 -42.500
21552300.000 4566550.000 -60.000
21552525.000 4566757.500 -45.000
21553000.000 4567080.000 -40.000
21553050.000 4566952.500 -56.250
21553000.000 4567192.500 -28.750
21553300.000 4567297.500 -28.750
21553000.000 4567305.000 -17.500
21553200.000 4567375.000 -17.500
21553000.000 4567417.500 -6.250
21553100.000 4567452.500 -6.250
21553000.000 4567530.000 5.000
21552900.000 4567655.000 -76.250
21553425.000 4567790.000 -53.750
21552900.000 4567655.000 -76.250
21553500.000 4567960.000 -127.500
21553500.000 4567960.000 -127.500
21554100.000 4568265.000 -178.750
21553850.000 4568050.000 -112.500
21554100.000 4568265.000 -178.750
21554700.000 4568570.000 -230.000
21554275.000 4568310.000 -171.250
21554350.000 4568335.000 -182.500
21554000.000 4568100.000 -135.000
21554525.000 4568382.500 -185.000
21554350.000 4568195.000 -140.000
21554700.000 4568435.000 -185.000
21554700.000 4568300.000 -140.000
21554850.000 4568442.500 -166.250
21554800.000 4568305.000 -127.500
21554900.000 4568580.000 -205.000
21555000.000 4568487.500 -160.000
21555100.000 4568395.000 -115.000
21555400.000 4568630.000 -95.000
21555375.000 4568525.000 -77.500
21555525.000 4568575.000 -83.750
21555350.000 4568420.000 -60.000
21555700.000 4568650.000 15.000
21555750.000 4568590.000 -1.250
21555650.000 4568520.000 -72.500
21555750.000 4568590.000 -1.250
21555800.000 4568530.000 -17.500
21555800.000 4568530.000 -17.500
21555850.000 4568470.000 -33.750
21555775.000 4568465.000 -61.250
21555325.000 4568315.000 -42.500
21555850.000 4568470.000 -33.750
21555900.000 4568410.000 -50.000
21555300.000 4568210.000 -25.000
21555825.000 4568312.500 -33.750
21555375.000 4568162.500 -15.000
21555950.000 4568360.000 -33.750
21556000.000 4568310.000 -17.500
21555750.000 4568215.000 -17.500
21556050.000 4568260.000 -1.250
21555450.000 4568115.000 -5.000
21555150.000 4568025.000 -17.500
21555675.000 4568117.500 -1.250
21555525.000 4568067.500 5.000
21556100.000 4568210.000 15.000
21555600.000 4568020.000 15.000
21556050.000 4568030.000 -1.250
21555375.000 4568022.500 -1.250
21554400.000 4567580.000 -25.000
21555450.000 4567807.500 -18.750
21554475.000 4567692.500 -31.250
21554300.000 4567640.000 -31.250
21554200.000 4567700.000 -37.500
21553550.000 4567370.000 -42.500
21553700.000 4567520.000 -45.000
21553400.000 4567220.000 -40.000
21554300.000 4567392.500 -28.750
21553375.000 4567322.500 -40.000
21553350.000 4567425.000 -40.000
21553125.000 4566982.500 -56.250
21553425.000 4567087.500 -56.250
21553250.000 4566885.000 -72.500
21553550.000 4567122.500 -40.000
21553450.000 4566955.000 -72.500
21554200.000 4567205.000 -32.500
21553700.000 4567025.000 -40.000
21554450.000 4567290.000 -45.000
21554425.000 4567435.000 -35.000
21554475.000 4567145.000 -55.000
21554700.000 4567375.000 -72.500
21554100.000 4567017.500 -36.250
21554500.000 4567000.000 -65.000
21554850.000 4567272.500 -96.250
21554000.000 4566830.000 -40.000
21553850.000 4566927.500 -40.000
21554400.000 4566822.500 -78.750
21554025.000 4566695.000 -60.000
21554775.000 4566950.000 -120.000
21554550.000 4566730.000 -120.000
21555000.000 4567170.000 -120.000
21555375.000 4567152.500 -101.250
21555150.000 4567382.500 -86.250
21555800.000 4567440.000 -95.000
21555300.000 4567595.000 -52.500
21555750.000 4567585.000 -67.500
21554550.000 4567477.500 -48.750
21555700.000 4567730.000 -40.000
21555650.000 4567875.000 -12.500
21555825.000 4567622.500 -33.750
21555750.000 4567755.000 -17.500
21555900.000 4567490.000 -50.000
21555950.000 4567670.000 -33.750
[...]
POINT_DATA 688
COLOR_SCALARS GocadColor 4
0 0.392157 0 1
0 0.392157 0 1
0 0.392157 0 1
0 0.392157 0 1
0 0.392157 0 1
0 0.392157 0 1
0 0.392157 0 1
0 0.392157 0 1
0 0.392157 0 1
0 0.392157 0 1
0 0.392157 0 1
0 0.392157 0 1
0 0.392157 0 1
0 0.392157 0 1
0 0.392157 0 1
0 0.392157 0 1
0 0.392157 0 1
0 0.392157 0 1
0 0.392157 0 1
0 0.392157 0 1
0 0.392157 0 1
0 0.392157 0 1
0 0.392157 0 1
0 0.392157 0 1
0 0.392157 0 1
0 0.392157 0 1
0 0.392157 0 1
0 0.392157 0 1
0 0.392157 0 1
0 0.392157 0 1
0 0.392157 0 1
0 0.392157 0 1
0 0.392157 0 1
0 0.392157 0 1
0 0.392157 0 1
0 0.392157 0 1
0 0.392157 0 1
0 0.392157 0 1
0 0.392157 0 1
0 0.392157 0 1
0 0.392157 0 1
0 0.392157 0 1
0 0.392157 0 1
0 0.392157 0 1
0 0.392157 0 1
0 0.392157 0 1
0 0.392157 0 1
0 0.392157 0 1
0 0.392157 0 1
0 0.392157 0 1
0 0.392157 0 1
0 0.392157 0 1
0 0.392157 0 1
0 0.392157 0 1
0 0.392157 0 1
0 0.392157 0 1
0 0.392157 0 1
0 0.392157 0 1
0 0.392157 0 1
0 0.392157 0 1
0 0.392157 0 1
0 0.392157 0 1
0 0.392157 0 1
0 0.392157 0 1
0 0.392157 0 1
0 0.392157 0 1
0 0.392157 0 1
0 0.392157 0 1
0 0.392157 0 1
0 0.392157 0 1
0 0.392157 0 1
0 0.392157 0 1
0 0.392157 0 1
0 0.392157 0 1
0 0.392157 0 1
0 0.392157 0 1
0 0.392157 0 1
0 0.392157 0 1
0 0.392157 0 1
0 0.392157 0 1
0 0.392157 0 1
0 0.392157 0 1
0 0.392157 0 1
0 0.392157 0 1
0 0.392157 0 1
0 0.392157 0 1
0 0.392157 0 1
0 0.392157 0 1
0 0.392157 0 1
0 0.392157 0 1
0 0.392157 0 1
0 0.392157 0 1
0 0.392157 0 1
0 0.392157 0 1
0 0.392157 0 1
0 0.392157 0 1
0 0.392157 0 1
0 0.392157 0 1
0 0.392157 0 1
0 0.392157 0 1
0 0.392157 0 1
0 0.392157 0 1
0 0.392157 0 1
0 0.392157 0 1
0 0.392157 0 1
0 0.392157 0 1
0 0.392157 0 1
0 0.392157 0 1
0 0.392157 0 1
0 0.392157 0 1
0 0.392157 0 1
0 0.392157 0 1
0 0.392157 0 1
0 0.392157 0 1
0 0.392157 0 1
0 0.392157 0 1
0 0.392157 0 1
0 0.392157 0 1
0 0.392157 0 1
0 0.392157 0 1
0 0.392157 0 1
0 0.392157 0 1
0 0.392157 0 1
0 0.392157 0 1
0 0.392157 0 1
0 0.392157 0 1
0 0.392157 0 1
0 0.392157 0 1
0 0.392157 0 1
0 0.392157 0 1
0 0.392157 0 1
0 0.392157 0 1
0 0.392157 0 1
0 0.392157 0 1
0 0.392157 0 1
0 0.392157 0 1
0 0.392157 0 1
0 0.392157 0 1
0 0.392157 0 1
0 0.392157 0 1
0 0.392157 0 1
0 0.392157 0 1
0 0.392157 0 1
0 0.392157 0 1
0 0.392157 0 1
0 0.392157 0 1
0 0.392157 0 1
0 0.392157 0 1
0 0.392157 0 1
0 0.392157 0 1
0 0.392157 0 1
0 0.392157 0 1
0 0.392157 0 1
0 0.392157 0 1
0 0.392157 0 1
0 0.392157 0 1
0 0.392157 0 1
0 0.392157 0 1
0 0.392157 0 1
0 0.392157 0 1
0 0.392157 0 1
0 0.392157 0 1
0 0.392157 0 1
0 0.392157 0 1
0 0.392157 0 1
0 0.392157 0 1
0 0.392157 0 1
0 0.392157 0 1
0 0.392157 0 1
0 0.392157 0 1
0 0.392157 0 1
0 0.392157 0 1
0 0.392157 0 1
0 0.392157 0 1
0 0.392157 0 1
0 0.392157 0 1
0 0.392157 0 1
0 0.392157 0 1
0 0.392157 0 1
0 0.392157 0 1
0 0.392157 0 1
0 0.392157 0 1
0 0.392157 0 1
0 0.392157 0 1
0 0.392157 0 1
0 0.392157 0 1
0 0.392157 0 1
0 0.392157 0 1
0 0.392157 0 1
0 0.392157 0 1
0 0.392157 0 1
0 0.392157 0 1
0 0.392157 0 1
0 0.392157 0 1
0 0.392157 0 1
0 0.392157 0 1
0 0.392157 0 1
0 0.392157 0 1
0 0.392157 0 1
0 0.392157 0 1
0 0.392157 0 1
0 0.392157 0 1
0 0.392157 0 1
0 0.392157 0 1
0 0.392157 0 1
0 0.392157 0 1
0 0.392157 0 1
0 0.392157 0 1
0 0.392157 0 1
0 0.392157 0 1
0 0.392157 0 1
0 0.392157 0 1
0 0.392157 0 1
0 0.392157 0 1
0 0.392157 0 1
0 0.392157 0 1
0 0.392157 0 1
0 0.392157 0 1
0 0.392157 0 1
0 0.392157 0 1
0 0.392157 0 1
0 0.392157 0 1
0 0.392157 0 1
0 0.392157 0 1
0 0.392157 0 1
0 0.392157 0 1
0 0.392157 0 1
0 0.392157 0 1
0 0.392157 0 1
0 0.392157 0 1
0 0.392157 0 1
0 0.392157 0 1
0 0.392157 0 1
0 0.392157 0 1
0 0.392157 0 1
0 0.392157 0 1
0 0.392157 0 1
0 0.392157 0 1
0 0.392157 0 1
0 0.392157 0 1
0 0.392157 0 1
0 0.392157 0 1
0 0.392157 0 1
0 0.392157 0 1
0 0.392157 0 1
0 0.392157 0 1
0 0.392157 0 1
0 0.392157 0 1
0 0.392157 0 1
0 0.392157 0 1
0 0.392157 0 1
0 0.392157 0 1
0 0.392157 0 1
0 0.392157 0 1
0 0.392157 0 1
0 0.392157 0 1
0 0.392157 0 1
0 0.392157 0 1
0 0.392157 0 1
0 0.392157 0 1
0 0.392157 0 1
0 0.392157 0 1
0 0.392157 0 1
0 0.392157 0 1
0 0.392157 0 1
0 0.392157 0 1
0 0.392157 0 1
0 0.392157 0 1
0 0.392157 0 1
0 0.392157 0 1
0 0.392157 0 1
0 0.392157 0 1
0 0.392157 0 1
0 0.392157 0 1
0 0.392157 0 1
0 0.392157 0 1
0 0.392157 0 1
0 0.392157 0 1
0 0.392157 0 1
0 0.392157 0 1
0 0.392157 0 1
0 0.392157 0 1
0 0.392157 0 1
0 0.392157 0 1
0 0.392157 0 1
0 0.392157 0 1
0 0.392157 0 1
0 0.392157 0 1
0 0.392157 0 1
0 0.392157 0 1
0 0.392157 0 1
0 0.392157 0 1
0 0.392157 0 1
0 0.392157 0 1
0 0.392157 0 1
0 0.392157 0 1
0 0.392157 0 1
0 0.392157 0 1
0 0.392157 0 1
0 0.392157 0 1
0 0.392157 0 1
0 0.392157 0 1
0 0.392157 0 1
0 0.392157 0 1
0 0.392157 0 1
0 0.392157 0 1
0 0.392157 0 1
0 0.392157 0 1
0 0.392157 0 1
0 0.392157 0 1
0 0.392157 0 1
0 0.392157 0 1
0 0.392157 0 1
0 0.392157 0 1
0 0.392157 0 1
0 0.392157 0 1
0 0.392157 0 1
0 0.392157 0 1
0 0.392157 0 1
0 0.392157 0 1
0 0.392157 0 1
0 0.392157 0 1
0 0.392157 0 1
0 0.392157 0 1
0 0.392157 0 1
0 0.392157 0 1
0 0.392157 0 1
0 0.392157 0 1
0 0.392157 0 1
0 0.392157 0 1
0 0.392157 0 1
0 0.392157 0 1
0 0.392157 0 1
0 0.392157 0 1
0 0.392157 0 1
0 0.392157 0 1
0 0.392157 0 1
0 0.392157 0 1
0 0.392157 0 1
0 0.392157 0 1
0 0.392157 0 1
0 0.392157 0 1
0 0.392157 0 1
0 0.392157 0 1
0 0.392157 0 1
0 0.392157 0 1
0 0.392157 0 1
0 0.392157 0 1
0 0.392157 0 1
0 0.392157 0 1
0 0.392157 0 1
0 0.392157 0 1
0 0.392157 0 1
0 0.392157 0 1
0 0.392157 0 1
0 0.392157 0 1
0 0.392157 0 1
0 0.392157 0 1
0 0.392157 0 1
0 0.392157 0 1
0 0.392157 0 1
0 0.392157 0 1
0 0.392157 0 1
0 0.392157 0 1
0 0.392157 0 1
0 0.392157 0 1
0 0.392157 0 1
0 0.392157 0 1
0 0.392157 0 1
0 0.392157 0 1
0 0.392157 0 1
0 0.392157 0 1
0 0.392157 0 1
0 0.392157 0 1
0 0.392157 0 1
0 0.392157 0 1
0 0.392157 0 1
0 0.392157 0 1
0 0.392157 0 1
0 0.392157 0 1
0 0.392157 0 1
0 0.392157 0 1
0 0.392157 0 1
0 0.392157 0 1
0 0.392157 0 1
0 0.392157 0 1
0 0.392157 0 1
0 0.392157 0 1
0 0.392157 0 1
0 0.392157 0 1
0 0.392157 0 1
0 0.392157 0 1
0 0.392157 0 1
0 0.392157 0 1
0 0.392157 0 1
0 0.392157 0 1
0 0.392157 0 1
0 0.392157 0 1
0 0.392157 0 1
0 0.392157 0 1
0 0.392157 0 1
0 0.392157 0 1
0 0.392157 0 1
0 0.392157 0 1
0 0.392157 0 1
0 0.392157 0 1
0 0.392157 0 1
0 0.392157 0 1
0 0.392157 0 1
0 0.392157 0 1
0 0.392157 0 1
0 0.392157 0 1
0 0.392157 0 1
0 0.392157 0 1
0 0.392157 0 1
0 0.392157 0 1
0 0.392157 0 1
0 0.392157 0 1
0 0.392157 0 1
0 0.392157 0 1
0 0.392157 0 1
0 0.392157 0 1
0 0.392157 0 1
0 0.392157 0 1
0 0.392157 0 1
0 0.392157 0 1
0 0.392157 0 1
0 0.392157 0 1
0 0.392157 0 1
0 0.392157 0 1
0 0.392157 0 1
0 0.392157 0 1
0 0.392157 0 1
0 0.392157 0 1
0 0.392157 0 1
0 0.392157 0 1
0 0.392157 0 1
0 0.392157 0 1
0 0.392157 0 1
0 0.392157 0 1
0 0.392157 0 1
0 0.392157 0 1
0 0.392157 0 1
0 0.392157 0 1
0 0.392157 0 1
0 0.392157 0 1
0 0.392157 0 1
0 0.392157 0 1
0 0.392157 0 1
0 0.392157 0 1
0 0.392157 0 1
0 0.392157 0 1
0 0.392157 0 1
0 0.392157 0 1
0 0.392157 0 1
0 0.392157 0 1
0 0.392157 0 1
0 0.392157 0 1
0 0.392157 0 1
0 0.392157 0 1
0 0.392157 0 1
0 0.392157 0 1
0 0.392157 0 1
0 0.392157 0 1
0 0.392157 0 1
0 0.392157 0 1
0 0.392157 0 1
0 0.392157 0 1
0 0.392157 0 1
0 0.392157 0 1
0 0.392157 0 1
0 0.392157 0 1
0 0.392157 0 1
0 0.392157 0 1
0 0.392157 0 1
0 0.392157 0 1
0 0.392157 0 1
0 0.392157 0 1
0 0.392157 0 1
0 0.392157 0 1
0 0.392157 0 1
0 0.392157 0 1
0 0.392157 0 1
0 0.392157 0 1
0 0.392157 0 1
0 0.392157 0 1
0 0.392157 0 1
0 0.392157 0 1
0 0.392157 0 1
0 0.392157 0 1
0 0.392157 0 1
0 0.392157 0 1
0 0.392157 0 1
0 0.392157 0 1
0 0.392157 0 1
0 0.392157 0 1
0 0.392157 0 1
0 0.392157 0 1
0 0.392157 0 1
0 0.392157 0 1
0 0.392157 0 1
0 0.392157 0 1
0 0.392157 0 1
0 0.392157 0 1
0 0.392157 0 1
0 0.392157 0 1
0 0.392157 0 1
0 0.392157 0 1
0 0.392157 0 1
0 0.392157 0 1
0 0.392157 0 1
0 0.392157 0 1
0 0.392157 0 1
0 0.392157 0 1
0 0.392157 0 1
0 0.392157 0 1
0 0.392157 0 1
0 0.392157 0 1
0 0.392157 0 1
0 0.392157 0 1
0 0.392157 0 1
0 0.392157 0 1
0 0.392157 0 1
0 0.392157 0 1
0 0.392157 0 1
0 0.392157 0 1
0 0.392157 0 1
0 0.392157 0 1
0 0.392157 0 1
0 0.392157 0 1
0 0.392157 0 1
0 0.392157 0 1
0 0.392157 0 1
0 0.392157 0 1
0 0.392157 0 1
0 0.392157 0 1
0 0.392157 0 1
0 0.392157 0 1
0 0.392157 0 1
0 0.392157 0 1
0 0.392157 0 1
0 0.392157 0 1
0 0.392157 0 1
0 0.392157 0 1
0 0.392157 0 1
0 0.392157 0 1
0 0.392157 0 1
0 0.392157 0 1
0 0.392157 0 1
0 0.392157 0 1
0 0.392157 0 1
0 0.392157 0 1
0 0.392157 0 1
0 0.392157 0 1
0 0.392157 0 1
0 0.392157 0 1
0 0.392157 0 1
0 0.392157 0 1
0 0.392157 0 1
0 0.392157 0 1
0 0.392157 0 1
0 0.392157 0 1
0 0.392157 0 1
0 0.392157 0 1
0 0.392157 0 1
0 0.392157 0 1
0 0.392157 0 1
0 0.392157 0 1
0 0.392157 0 1
0 0.392157 0 1
0 0.392157 0 1
0 0.392157 0 1
0 0.392157 0 1
0 0.392157 0 1
0 0.392157 0 1
0 0.392157 0 1
0 0.392157 0 1
0 0.392157 0 1
0 0.392157 0 1
0 0.392157 0 1
0 0.392157 0 1
0 0.392157 0 1
0 0.392157 0 1
0 0.392157 0 1
0 0.392157 0 1
0 0.392157 0 1
0 0.392157 0 1
0 0.392157 0 1
0 0.392157 0 1
0 0.392157 0 1
0 0.392157 0 1
0 0.392157 0 1
0 0.392157 0 1
0 0.392157 0 1
0 0.392157 0 1
0 0.392157 0 1
0 0.392157 0 1
0 0.392157 0 1
0 0.392157 0 1
0 0.392157 0 1
0 0.392157 0 1
0 0.392157 0 1
0 0.392157 0 1
0 0.392157 0 1
0 0.392157 0 1
0 0.392157 0 1
0 0.392157 0 1
0 0.392157 0 1
0 0.392157 0 1
0 0.392157 0 1
0 0.392157 0 1
0 0.392157 0 1
0 0.392157 0 1
0 0.392157 0 1
0 0.392157 0 1
0 0.392157 0 1
0 0.392157 0 1
0 0.392157 0 1
0 0.392157 0 1
0 0.392157 0 1
0 0.392157 0 1
0 0.392157 0 1
0 0.392157 0 1
0 0.392157 0 1
0 0.392157 0 1
0 0.392157 0 1
0 0.392157 0 1
0 0.392157 0 1
0 0.392157 0 1
0 0.392157 0 1
0 0.392157 0 1
0 0.392157 0 1
0 0.392157 0 1
0 0.392157 0 1
0 0.392157 0 1
0 0.392157 0 1
0 0.392157 0 1
0 0.392157 0 1
0 0.392157 0 1
0 0.392157 0 1
0 0.392157 0 1
0 0.392157 0 1
0 0.392157 0 1
0 0.392157 0 1
0 0.392157 0 1
0 0.392157 0 1
0 0.392157 0 1
0 0.392157 0 1
0 0.392157 0 1
0 0.392157 0 1
0 0.392157 0 1
0 0.392157 0 1
0 0.392157 0 1
0 0.392157 0 1
0 0.392157 0 1
0 0.392157 0 1
0 0.392157 0 1
0 0.392157 0 1
0 0.392157 0 1
0 0.392157 0 1
0 0.392157 0 1
0 0.392157 0 1
0 0.392157 0 1
0 0.392157 0 1
0 0.392157 0 1
0 0.392157 0 1
0 0.392157 0 1
0 0.392157 0 1
0 0.392157 0 1
0 0.392157 0 1
0 0.392157 0 1
0 0.392157 0 1
0 0.392157 0 1
0 0.392157 0 1
0 0.392157 0 1
0 0.392157 0 1
0 0.392157 0 1
0 0.392157 0 1
0 0.392157 0 1
0 0.392157 0 1
0 0.392157 0 1
0 0.392157 0 1
0 0.392157 0 1
0 0.392157 0 1
0 0.392157 0 1
0 0.392157 0 1
0 0.392157 0 1
0 0.392157 0 1

