# vtk DataFile Version 3.0
Gocad TSurf to VTK
ASCII
DATASET POLYDATA
POINTS 526 float
21573500.000 4563920.000 250.000
21573000.000 4564580.000 530.000
21573525.000 4564175.000 323.750
21573150.000 4564670.000 533.750
21573850.000 4564030.000 242.500
21572925.000 4564322.500 376.250
21573100.000 4563735.000 82.500
21572825.000 4564462.500 530.000
21572650.000 4564345.000 530.000
21572850.000 4564065.000 222.500
21572475.000 4564227.500 530.000
21572775.000 4563807.500 68.750
21572300.000 4564110.000 530.000
21572700.000 4563550.000 -85.000
21572900.000 4563642.500 -1.250
21572500.000 4563552.500 65.000
21572575.000 4563462.500 -112.500
21572200.000 4563972.500 526.250
21572300.000 4563555.000 215.000
21572450.000 4563375.000 -140.000
21572168.484 4563929.168 525.068
21572102.984 4563830.820 517.909
21572073.656 4563786.773 514.703
21572069.313 4563778.285 513.113
21572020.719 4563687.660 497.780
21571951.906 4563559.352 476.069
21572200.000 4563200.000 -195.000
21571918.438 4563537.879 471.372
21572500.000 4563260.000 -350.000
21572400.000 4563115.000 -482.500
21572600.000 4563405.000 -217.500
21572750.000 4562975.000 -662.500
21572525.000 4562972.500 -638.750
21572675.000 4562852.500 -826.250
21572300.000 4562970.000 -615.000
21572500.000 4562810.000 -865.000
21572075.000 4562960.000 -177.500
21572150.000 4562787.500 -492.500
21571800.000 4562915.000 62.500
21571950.000 4562720.000 -160.000
21571888.359 4563484.926 462.331
21571777.313 4563289.387 428.945
21571660.063 4563082.930 393.694
21571643.656 4563054.035 388.761
21571600.000 4562772.500 191.250
21571570.094 4562924.523 366.649
21571825.000 4562480.000 -142.500
21571575.000 4562162.500 -17.500
21572075.000 4562137.500 -498.750
21571400.000 4562630.000 320.000
21571350.000 4562455.000 316.250
21571510.375 4562835.305 363.047
21571526.984 4562860.117 364.049
21571450.000 4562085.000 90.000
21571675.000 4562015.000 -115.000
21571300.000 4562280.000 312.500
21571250.000 4562105.000 308.750
21571200.000 4561930.000 305.000
21571625.000 4561565.000 -95.000
21571650.000 4561790.000 -105.000
21571600.000 4561340.000 -85.000
21571750.000 4561400.000 -223.750
21571800.000 4561600.000 -272.500
21571900.000 4560980.000 -265.000
21571975.000 4561127.500 -358.750
21571900.000 4561460.000 -362.500
21572050.000 4561027.500 -366.250
21572050.000 4561280.000 -452.500
21572000.000 4560750.000 -375.000
21572125.000 4560855.000 -448.750
21572150.000 4561135.000 -487.500
21572175.000 4560792.500 -388.750
21572250.000 4560960.000 -522.500
21572100.000 4560600.000 -375.000
21572250.000 4560680.000 -388.750
21572350.000 4560835.000 -402.500
21572200.000 4560480.000 -335.000
21572325.000 4560590.000 -358.750
21572450.000 4560695.000 -382.500
21572200.000 4560470.000 -335.000
21572375.000 4560502.500 -282.500
21572400.000 4560300.000 -140.000
21572525.000 4560375.000 -136.250
21572550.000 4560535.000 -230.000
21572600.000 4560262.500 32.500
21572700.000 4560375.000 -20.000
21572500.000 4560150.000 85.000
21572650.000 4560202.500 88.750
21572800.000 4560255.000 92.500
21572650.000 4560135.000 223.750
21572800.000 4560210.000 182.500
21572500.000 4560060.000 265.000
21572950.000 4560285.000 141.250
21572950.000 4560307.500 96.250
21573100.000 4560360.000 100.000
21572775.000 4560525.000 -128.750
21572650.000 4560450.000 -132.500
21572900.000 4560600.000 -125.000
21572725.000 4560567.500 -177.500
21573250.000 4560560.000 65.000
21573100.000 4560740.000 -103.750
21573275.000 4560537.500 113.750
21573450.000 4560715.000 127.500
21573400.000 4560760.000 30.000
21573625.000 4560892.500 141.250
21573550.000 4560960.000 -5.000
21573300.000 4560880.000 -82.500
21573800.000 4561070.000 155.000
21573450.000 4561100.000 -137.500
21573875.000 4561192.500 -26.250
21574075.000 4561540.000 -407.500
21573950.000 4561125.000 120.000
21574100.000 4561180.000 85.000
21574225.000 4561257.500 1.250
21574300.000 4561520.000 -265.000
21574250.000 4561235.000 50.000
21574400.000 4561290.000 15.000
21574475.000 4561615.000 -173.750
21574550.000 4561865.000 -140.000
21574550.000 4561450.000 36.250
21574650.000 4561720.000 -82.500
21574700.000 4561610.000 57.500
21574825.000 4561827.500 8.750
21574675.000 4562037.500 -77.500
21574850.000 4561770.000 78.750
21575000.000 4561930.000 100.000
21574800.000 4562210.000 -15.000
21574975.000 4562250.000 20.000
21574950.000 4562555.000 -125.000
21575125.000 4562040.000 106.250
21575150.000 4562290.000 55.000
21575100.000 4562375.000 -55.000
21575250.000 4562150.000 112.500
21575325.000 4562330.000 90.000
21575250.000 4562457.500 -75.000
21575375.000 4562260.000 118.750
21575500.000 4562370.000 125.000
21575400.000 4562540.000 -95.000
21575625.000 4562515.000 103.750
21575550.000 4562642.500 -61.250
21575750.000 4562660.000 82.500
21575300.000 4562630.000 -180.000
21575500.000 4562985.000 -172.500
21575175.000 4562525.000 -138.750
21575000.000 4563020.000 -125.000
21574900.000 4562885.000 -111.250
21575175.000 4563100.000 -135.000
21575075.000 4563227.500 -115.000
21575250.000 4563285.000 -145.000
21574600.000 4563520.000 55.000
21574775.000 4563602.500 20.000
21574525.000 4563340.000 20.000
21574650.000 4562910.000 -105.000
21574450.000 4563450.000 48.750
21574300.000 4563380.000 42.500
21574150.000 4563915.000 183.750
21574050.000 4563465.000 81.250
21574025.000 4564085.000 238.750
21574650.000 4563745.000 58.750
21574500.000 4564280.000 152.500
21574950.000 4563685.000 -15.000
21575150.000 4563435.000 -105.000
21574700.000 4563970.000 62.500
21574750.000 4564195.000 66.250
21575300.000 4563850.000 -85.000
21574800.000 4564420.000 70.000
21574200.000 4564957.500 362.500
21575150.000 4564465.000 -147.500
21574950.000 4564685.000 27.500
21575350.000 4564015.000 -155.000
21575400.000 4564180.000 -225.000
21575425.000 4563927.500 -213.750
21575600.000 4563655.000 -291.250
21575700.000 4563765.000 -417.500
21575500.000 4563550.000 -165.000
21575825.000 4563435.000 -291.250
21575225.000 4563642.500 -95.000
21575375.000 4563417.500 -155.000
21575350.000 4563180.000 -145.000
21575525.000 4563260.000 -155.000
21575600.000 4563162.500 -168.750
21575800.000 4563190.000 -155.000
21575700.000 4563340.000 -165.000
21575850.000 4562847.500 6.250
21576000.000 4562950.000 40.000
21575875.000 4562805.000 61.250
21575975.000 4563225.000 -118.750
21575925.000 4563265.000 -202.500
21576125.000 4563045.000 16.250
21576150.000 4563260.000 -97.500
21576125.000 4563027.500 55.000
21576250.000 4563105.000 70.000
21576250.000 4563140.000 -7.500
21576375.000 4563182.500 85.000
21576325.000 4563295.000 -76.250
21576500.000 4563260.000 100.000
21576625.000 4563422.500 68.750
21576575.000 4563520.000 -100.000
21576300.000 4563490.000 -390.000
21576750.000 4563585.000 37.500
21576750.000 4563620.000 -40.000
21576650.000 4563710.000 -145.000
21576875.000 4563747.500 6.250
21576875.000 4563765.000 -32.500
21577000.000 4563910.000 -25.000
21576650.000 4563972.500 -322.500
21576550.000 4563790.000 -312.500
21576800.000 4564090.000 -235.000
21576700.000 4564230.000 -375.000
21577075.000 4564067.500 -36.250
21576925.000 4564202.500 -193.750
21577100.000 4564017.500 40.000
21577125.000 4563992.500 82.500
21577200.000 4564125.000 105.000
21577150.000 4564225.000 -47.500
21577300.000 4564232.500 170.000
21577050.000 4564315.000 -152.500
21577000.000 4564390.000 -230.000
21577225.000 4564382.500 -58.750
21577400.000 4564340.000 235.000
21577375.000 4564157.500 297.500
21577300.000 4564540.000 -70.000
21577600.000 4564385.000 -1.250
21577075.000 4564575.000 -262.500
21577200.000 4564690.000 -225.000
21577100.000 4564790.000 -250.000
21577400.000 4564677.500 -157.500
21577325.000 4564790.000 -273.750
21577475.000 4564600.000 -202.500
21577500.000 4564815.000 -245.000
21577800.000 4564430.000 -237.500
21577750.000 4564530.000 -390.000
21577850.000 4564380.000 -152.500
21578025.000 4564450.000 -431.250
21577675.000 4564310.000 126.250
21577500.000 4564240.000 405.000
21578000.000 4564475.000 -473.750
21578200.000 4564520.000 -710.000
21577825.000 4564720.000 -467.500
21578000.000 4564780.000 -600.000
21577650.000 4564660.000 -335.000
21577450.000 4564890.000 -322.500
21577700.000 4565090.000 -420.000
21577400.000 4565255.000 -156.250
21578200.000 4565077.500 -732.500
21577925.000 4565340.000 -535.000
21578425.000 4564815.000 -902.500
21578450.000 4565305.000 -955.000
21578450.000 4564792.500 -937.500
21578650.000 4565110.000 -1095.000
21578700.000 4565065.000 -1165.000
21578875.000 4565405.000 -1287.500
21578600.000 4565672.500 -997.500
21578950.000 4565337.500 -1392.500
21579100.000 4565700.000 -1480.000
21579200.000 4565610.000 -1620.000
21578900.000 4565830.000 -1310.000
21578800.000 4565970.000 -1130.000
21579050.000 4565947.500 -1361.250
21579200.000 4565850.000 -1488.750
21579000.000 4565995.000 -1266.250
21579200.000 4566065.000 -1412.500
21579100.000 4566160.000 -1222.500
21579350.000 4566182.500 -1463.750
21578925.000 4566100.000 -1131.250
21579050.000 4566230.000 -1132.500
21578875.000 4566137.500 -1037.500
21579175.000 4566360.000 -1133.750
21578950.000 4566305.000 -945.000
21579500.000 4566300.000 -1515.000
21579350.000 4566572.500 -1116.250
21579650.000 4566015.000 -1695.000
21579500.000 4565880.000 -1670.000
21579800.000 4566150.000 -1720.000
21579725.000 4566317.500 -1555.000
21579650.000 4566485.000 -1390.000
21579500.000 4566560.000 -1287.500
21579575.000 4566652.500 -1225.000
21579500.000 4566690.000 -1173.750
21579500.000 4566820.000 -1060.000
21579450.000 4566737.500 -1078.750
21579400.000 4566775.000 -985.000
21579175.000 4566962.500 -587.500
21579125.000 4566747.500 -702.500
21579775.000 4567370.000 -770.000
21579625.000 4567497.500 -541.250
21579050.000 4567070.000 -242.500
21580050.000 4567920.000 -480.000
21579800.000 4567945.000 -237.500
21579350.000 4567582.500 -38.750
21580325.000 4568470.000 -190.000
21580200.000 4568490.000 -95.000
21579775.000 4568450.000 488.750
21580600.000 4569020.000 100.000
21580500.000 4568990.000 125.000
21580300.000 4568900.000 280.000
[...]
POINT_DATA 526
COLOR_SCALARS GocadColor 4
0.819608 0.698116 0.549615 1
0.819608 0.698116 0.549615 1
0.819608 0.698116 0.549615 1
0.819608 0.698116 0.549615 1
0.819608 0.698116 0.549615 1
0.819608 0.698116 0.549615 1
0.819608 0.698116 0.549615 1
0.819608 0.698116 0.549615 1
0.819608 0.698116 0.549615 1
0.819608 0.698116 0.549615 1
0.819608 0.698116 0.549615 1
0.819608 0.698116 0.549615 1
0.819608 0.698116 0.549615 1
0.819608 0.698116 0.549615 1
0.819608 0.698116 0.549615 1
0.819608 0.698116 0.549615 1
0.819608 0.698116 0.549615 1
0.819608 0.698116 0.549615 1
0.819608 0.698116 0.549615 1
0.819608 0.698116 0.549615 1
0.819608 0.698116 0.549615 1
0.819608 0.698116 0.549615 1
0.819608 0.698116 0.549615 1
0.819608 0.698116 0.549615 1
0.819608 0.698116 0.549615 1
0.819608 0.698116 0.549615 1
0.819608 0.698116 0.549615 1
0.819608 0.698116 0.549615 1
0.819608 0.698116 0.549615 1
0.819608 0.698116 0.549615 1
0.819608 0.698116 0.549615 1
0.819608 0.698116 0.549615 1
0.819608 0.698116 0.549615 1
0.819608 0.698116 0.549615 1
0.819608 0.698116 0.549615 1
0.819608 0.698116 0.549615 1
0.819608 0.698116 0.549615 1
0.819608 0.698116 0.549615 1
0.819608 0.698116 0.549615 1
0.819608 0.698116 0.549615 1
0.819608 0.698116 0.549615 1
0.819608 0.698116 0.549615 1
0.819608 0.698116 0.549615 1
0.819608 0.698116 0.549615 1
0.819608 0.698116 0.549615 1
0.819608 0.698116 0.549615 1
0.819608 0.698116 0.549615 1
0.819608 0.698116 0.549615 1
0.819608 0.698116 0.549615 1
0.819608 0.698116 0.549615 1
0.819608 0.698116 0.549615 1
0.819608 0.698116 0.549615 1
0.819608 0.698116 0.549615 1
0.819608 0.698116 0.549615 1
0.819608 0.698116 0.549615 1
0.819608 0.698116 0.549615 1
0.819608 0.698116 0.549615 1
0.819608 0.698116 0.549615 1
0.819608 0.698116 0.549615 1
0.819608 0.698116 0.549615 1
0.819608 0.698116 0.549615 1
0.819608 0.698116 0.549615 1
0.819608 0.698116 0.549615 1
0.819608 0.698116 0.549615 1
0.819608 0.698116 0.549615 1
0.819608 0.698116 0.549615 1
0.819608 0.698116 0.549615 1
0.819608 0.698116 0.549615 1
0.819608 0.698116 0.549615 1
0.819608 0.698116 0.549615 1
0.819608 0.698116 0.549615 1
0.819608 0.698116 0.549615 1
0.819608 0.698116 0.549615 1
0.819608 0.698116 0.549615 1
0.819608 0.698116 0.549615 1
0.819608 0.698116 0.549615 1
0.819608 0.698116 0.549615 1
0.819608 0.698116 0.549615 1
0.819608 0.698116 0.549615 1
0.819608 0.698116 0.549615 1
0.819608 0.698116 0.549615 1
0.819608 0.698116 0.549615 1
0.819608 0.698116 0.549615 1
0.819608 0.698116 0.549615 1
0.819608 0.698116 0.549615 1
0.819608 0.698116 0.549615 1
0.819608 0.698116 0.549615 1
0.819608 0.698116 0.549615 1
0.819608 0.698116 0.549615 1
0.819608 0.698116 0.549615 1
0.819608 0.698116 0.549615 1
0.819608 0.698116 0.549615 1
0.819608 0.698116 0.549615 1
0.819608 0.698116 0.549615 1
0.819608 0.698116 0.549615 1
0.819608 0.698116 0.549615 1
0.819608 0.698116 0.549615 1
0.819608 0.698116 0.549615 1
0.819608 0.698116 0.549615 1
0.819608 0.698116 0.549615 1
0.819608 0.698116 0.549615 1
0.819608 0.698116 0.549615 1
0.819608 0.698116 0.549615 1
0.819608 0.698116 0.549615 1
0.819608 0.698116 0.549615 1
0.819608 0.698116 0.549615 1
0.819608 0.698116 0.549615 1
0.819608 0.698116 0.549615 1
0.819608 0.698116 0.549615 1
0.819608 0.698116 0.549615 1
0.819608 0.698116 0.549615 1
0.819608 0.698116 0.549615 1
0.819608 0.698116 0.549615 1
0.819608 0.698116 0.549615 1
0.819608 0.698116 0.549615 1
0.819608 0.698116 0.549615 1
0.819608 0.698116 0.549615 1
0.819608 0.698116 0.549615 1
0.819608 0.698116 0.549615 1
0.819608 0.698116 0.549615 1
0.819608 0.698116 0.549615 1
0.819608 0.698116 0.549615 1
0.819608 0.698116 0.549615 1
0.819608 0.698116 0.549615 1
0.819608 0.698116 0.549615 1
0.819608 0.698116 0.549615 1
0.819608 0.698116 0.549615 1
0.819608 0.698116 0.549615 1
0.819608 0.698116 0.549615 1
0.819608 0.698116 0.549615 1
0.819608 0.698116 0.549615 1
0.819608 0.698116 0.549615 1
0.819608 0.698116 0.549615 1
0.819608 0.698116 0.549615 1
0.819608 0.698116 0.549615 1
0.819608 0.698116 0.549615 1
0.819608 0.698116 0.549615 1
0.819608 0.698116 0.549615 1
0.819608 0.698116 0.549615 1
0.819608 0.698116 0.549615 1
0.819608 0.698116 0.549615 1
0.819608 0.698116 0.549615 1
0.819608 0.698116 0.549615 1
0.819608 0.698116 0.549615 1
0.819608 0.698116 0.549615 1
0.819608 0.698116 0.549615 1
0.819608 0.698116 0.549615 1
0.819608 0.698116 0.549615 1
0.819608 0.698116 0.549615 1
0.819608 0.698116 0.549615 1
0.819608 0.698116 0.549615 1
0.819608 0.698116 0.549615 1
0.819608 0.698116 0.549615 1
0.819608 0.698116 0.549615 1
0.819608 0.698116 0.549615 1
0.819608 0.698116 0.549615 1
0.819608 0.698116 0.549615 1
0.819608 0.698116 0.549615 1
0.819608 0.698116 0.549615 1
0.819608 0.698116 0.549615 1
0.819608 0.698116 0.549615 1
0.819608 0.698116 0.549615 1
0.819608 0.698116 0.549615 1
0.819608 0.698116 0.549615 1
0.819608 0.698116 0.549615 1
0.819608 0.698116 0.549615 1
0.819608 0.698116 0.549615 1
0.819608 0.698116 0.549615 1
0.819608 0.698116 0.549615 1
0.819608 0.698116 0.549615 1
0.819608 0.698116 0.549615 1
0.819608 0.698116 0.549615 1
0.819608 0.698116 0.549615 1
0.819608 0.698116 0.549615 1
0.819608 0.698116 0.549615 1
0.819608 0.698116 0.549615 1
0.819608 0.698116 0.549615 1
0.819608 0.698116 0.549615 1
0.819608 0.698116 0.549615 1
0.819608 0.698116 0.549615 1
0.819608 0.698116 0.549615 1
0.819608 0.698116 0.549615 1
0.819608 0.698116 0.549615 1
0.819608 0.698116 0.549615 1
0.819608 0.698116 0.549615 1
0.819608 0.698116 0.549615 1
0.819608 0.698116 0.549615 1
0.819608 0.698116 0.549615 1
0.819608 0.698116 0.549615 1
0.819608 0.698116 0.549615 1
0.819608 0.698116 0.549615 1
0.819608 0.698116 0.549615 1
0.819608 0.698116 0.549615 1
0.819608 0.698116 0.549615 1
0.819608 0.698116 0.549615 1
0.819608 0.698116 0.549615 1
0.819608 0.698116 0.549615 1
0.819608 0.698116 0.549615 1
0.819608 0.698116 0.549615 1
0.819608 0.698116 0.549615 1
0.819608 0.698116 0.549615 1
0.819608 0.698116 0.549615 1
0.819608 0.698116 0.549615 1
0.819608 0.698116 0.549615 1
0.819608 0.698116 0.549615 1
0.819608 0.698116 0.549615 1
0.819608 0.698116 0.549615 1
0.819608 0.698116 0.549615 1
0.819608 0.698116 0.549615 1
0.819608 0.698116 0.549615 1
0.819608 0.698116 0.549615 1
0.819608 0.698116 0.549615 1
0.819608 0.698116 0.549615 1
0.819608 0.698116 0.549615 1
0.819608 0.698116 0.549615 1
0.819608 0.698116 0.549615 1
0.819608 0.698116 0.549615 1
0.819608 0.698116 0.549615 1
0.819608 0.698116 0.549615 1
0.819608 0.698116 0.549615 1
0.819608 0.698116 0.549615 1
0.819608 0.698116 0.549615 1
0.819608 0.698116 0.549615 1
0.819608 0.698116 0.549615 1
0.819608 0.698116 0.549615 1
0.819608 0.698116 0.549615 1
0.819608 0.698116 0.549615 1
0.819608 0.698116 0.549615 1
0.819608 0.698116 0.549615 1
0.819608 0.698116 0.549615 1
0.819608 0.698116 0.549615 1
0.819608 0.698116 0.549615 1
0.819608 0.698116 0.549615 1
0.819608 0.698116 0.549615 1
0.819608 0.698116 0.549615 1
0.819608 0.698116 0.549615 1
0.819608 0.698116 0.549615 1
0.819608 0.698116 0.549615 1
0.819608 0.698116 0.549615 1
0.819608 0.698116 0.549615 1
0.819608 0.698116 0.549615 1
0.819608 0.698116 0.549615 1
0.819608 0.698116 0.549615 1
0.819608 0.698116 0.549615 1
0.819608 0.698116 0.549615 1
0.819608 0.698116 0.549615 1
0.819608 0.698116 0.549615 1
0.819608 0.698116 0.549615 1
0.819608 0.698116 0.549615 1
0.819608 0.698116 0.549615 1
0.819608 0.698116 0.549615 1
0.819608 0.698116 0.549615 1
0.819608 0.698116 0.549615 1
0.819608 0.698116 0.549615 1
0.819608 0.698116 0.549615 1
0.819608 0.698116 0.549615 1
0.819608 0.698116 0.549615 1
0.819608 0.698116 0.549615 1
0.819608 0.698116 0.549615 1
0.819608 0.698116 0.549615 1
0.819608 0.698116 0.549615 1
0.819608 0.698116 0.549615 1
0.819608 0.698116 0.549615 1
0.819608 0.698116 0.549615 1
0.819608 0.698116 0.549615 1
0.819608 0.698116 0.549615 1
0.819608 0.698116 0.549615 1
0.819608 0.698116 0.549615 1
0.819608 0.698116 0.549615 1
0.819608 0.698116 0.549615 1
0.819608 0.698116 0.549615 1
0.819608 0.698116 0.549615 1
0.819608 0.698116 0.549615 1
0.819608 0.698116 0.549615 1
0.819608 0.698116 0.549615 1
0.819608 0.698116 0.549615 1
0.819608 0.698116 0.549615 1
0.819608 0.698116 0.549615 1
0.819608 0.698116 0.549615 1
0.819608 0.698116 0.549615 1
0.819608 0.698116 0.549615 1
0.819608 0.698116 0.549615 1
0.819608 0.698116 0.549615 1
0.819608 0.698116 0.549615 1
0.819608 0.698116 0.549615 1
0.819608 0.698116 0.549615 1
0.819608 0.698116 0.549615 1
0.819608 0.698116 0.549615 1
0.819608 0.698116 0.549615 1
0.819608 0.698116 0.549615 1
0.819608 0.698116 0.549615 1
0.819608 0.698116 0.549615 1
0.819608 0.698116 0.549615 1
0.819608 0.698116 0.549615 1
0.819608 0.698116 0.549615 1
0.819608 0.698116 0.549615 1
0.819608 0.698116 0.549615 1
0.819608 0.698116 0.549615 1
0.819608 0.698116 0.549615 1
0.819608 0.698116 0.549615 1
0.819608 0.698116 0.549615 1
0.819608 0.698116 0.549615 1
0.819608 0.698116 0.549615 1
0.819608 0.698116 0.549615 1
0.819608 0.698116 0.549615 1
0.819608 0.698116 0.549615 1
0.819608 0.698116 0.549615 1
0.819608 0.698116 0.549615 1
0.819608 0.698116 0.549615 1
0.819608 0.698116 0.549615 1
0.819608 0.698116 0.549615 1
0.819608 0.698116 0.549615 1
0.819608 0.698116 0.549615 1
0.819608 0.698116 0.549615 1
0.819608 0.698116 0.549615 1
0.819608 0.698116 0.549615 1
0.819608 0.698116 0.549615 1
0.819608 0.698116 0.549615 1
0.819608 0.698116 0.549615 1
0.819608 0.698116 0.549615 1
0.819608 0.698116 0.549615 1
0.819608 0.698116 0.549615 1
0.819608 0.698116 0.549615 1
0.819608 0.698116 0.549615 1
0.819608 0.698116 0.549615 1
0.819608 0.698116 0.549615 1
0.819608 0.698116 0.549615 1
0.819608 0.698116 0.549615 1
0.819608 0.698116 0.549615 1
0.819608 0.698116 0.549615 1
0.819608 0.698116 0.549615 1
0.819608 0.698116 0.549615 1
0.819608 0.698116 0.549615 1
0.819608 0.698116 0.549615 1
0.819608 0.698116 0.549615 1
0.819608 0.698116 0.549615 1
0.819608 0.698116 0.549615 1
0.819608 0.698116 0.549615 1
0.819608 0.698116 0.549615 1
0.819608 0.698116 0.549615 1
0.819608 0.698116 0.549615 1
0.819608 0.698116 0.549615 1
0.819608 0.698116 0.549615 1
0.819608 0.698116 0.549615 1
0.819608 0.698116 0.549615 1
0.819608 0.698116 0.549615 1
0.819608 0.698116 0.549615 1
0.819608 0.698116 0.549615 1
0.819608 0.698116 0.549615 1
0.819608 0.698116 0.549615 1
0.819608 0.698116 0.549615 1
0.819608 0.698116 0.549615 1
0.819608 0.698116 0.549615 1
0.819608 0.698116 0.549615 1
0.819608 0.698116 0.549615 1
0.819608 0.698116 0.549615 1
0.819608 0.698116 0.549615 1
0.819608 0.698116 0.549615 1
0.819608 0.698116 0.549615 1
0.819608 0.698116 0.549615 1
0.819608 0.698116 0.549615 1
0.819608 0.698116 0.549615 1
0.819608 0.698116 0.549615 1
0.819608 0.698116 0.549615 1
0.819608 0.698116 0.549615 1
0.819608 0.698116 0.549615 1
0.819608 0.698116 0.549615 1
0.819608 0.698116 0.549615 1
0.819608 0.698116 0.549615 1
0.819608 0.698116 0.549615 1
0.819608 0.698116 0.549615 1
0.819608 0.698116 0.549615 1
0.819608 0.698116 0.549615 1
0.819608 0.698116 0.549615 1
0.819608 0.698116 0.549615 1
0.819608 0.698116 0.549615 1
0.819608 0.698116 0.549615 1
0.819608 0.698116 0.549615 1
0.819608 0.698116 0.549615 1
0.819608 0.698116 0.549615 1
0.819608 0.698116 0.549615 1
0.819608 0.698116 0.549615 1
0.819608 0.698116 0.549615 1
0.819608 0.698116 0.549615 1
0.819608 0.698116 0.549615 1
0.819608 0.698116 0.549615 1
0.819608 0.698116 0.549615 1
0.819608 0.698116 0.549615 1
0.819608 0.698116 0.549615 1
0.819608 0.698116 0.549615 1
0.819608 0.698116 0.549615 1
0.819608 0.698116 0.549615 1
0.819608 0.698116 0.549615 1
0.819608 0.698116 0.549615 1
0.819608 0.698116 0.549615 1
0.819608 0.698116 0.549615 1
0.819608 0.698116 0.549615 1
0.819608 0.698116 0.549615 1
0.819608 0.698116 0.549615 1
0.819608 0.698116 0.549615 1
0.819608 0.698116 0.549615 1
0.819608 0.698116 0.549615 1
0.819608 0.698116 0.549615 1
0.819608 0.698116 0.549615 1
0.819608 0.698116 0.549615 1
0.819608 0.698116 0.549615 1
0.819608 0.698116 0.549615 1
0.819608 0.698116 0.549615 1
0.819608 0.698116 0.549615 1
0.819608 0.698116 0.549615 1
0.819608 0.698116 0.549615 1
0.819608 0.698116 0.549615 1
0.819608 0.698116 0.549615 1
0.819608 0.698116 0.549615 1
0.819608 0.698116 0.549615 1
0.819608 0.698116 0.549615 1
0.819608 0.698116 0.549615 1
0.819608 0.698116 0.549615 1
0.819608 0.698116 0.549615 1
0.819608 0.698116 0.549615 1
0.819608 0.698116 0.549615 1
0.819608 0.698116 0.549615 1
0.819608 0.698116 0.549615 1
0.819608 0.698116 0.549615 1
0.819608 0.698116 0.549615 1
0.819608 0.698116 0.549615 1
0.819608 0.698116 0.549615 1
0.819608 0.698116 0.549615 1
0.819608 0.698116 0.549615 1
0.819608 0.698116 0.549615 1
0.819608 0.698116 0.549615 1
0.819608 0.698116 0.549615 1
0.819608 0.698116 0.549615 1
0.819608 0.698116 0.549615 1
0.819608 0.698116 0.549615 1
0.819608 0.698116 0.549615 1
0.819608 0.698116 0.549615 1
0.819608 0.698116 0.549615 1
0.819608 0.698116 0.549615 1
0.819608 0.698116 0.549615 1
0.819608 0.698116 0.549615 1
0.819608 0.698116 0.549615 1
0.819608 0.698116 0.549615 1
0.819608 0.698116 0.549615 1
0.819608 0.698116 0.549615 1
0.819608 0.698116 0.549615 1
0.819608 0.698116 0.549615 1
0.819608 0.698116 0.549615 1
0.819608 0.698116 0.549615 1
0.819608 0.698116 0.549615 1
0.819608 0.698116 0.549615 1
0.819608 0.698116 0.549615 1
0.819608 0.698116 0.549615 1
0.819608 0.698116 0.549615 1
0.819608 0.698116 0.549615 1
0.819608 0.698116 0.549615 1
0.819608 0.698116 0.549615 1
0.819608 0.698116 0.549615 1
0.819608 0.698116 0.549615 1
0.819608 0.698116 0.549615 1
0.819608 0.698116 0.549615 1
0.819608 0.698116 0.549615 1
0.819608 0.698116 0.549615 1
0.819608 0.698116 0.549615 1
0.819608 0.698116 0.549615 1
0.819608 0.698116 0.549615 1
0.819608 0.698116 0.549615 1
0.819608 0.698116 0.549615 1
0.819608 0.698116 0.549615 1
0.819608 0.698116 0.549615 1
0.819608 0.698116 0.549615 1
0.819608 0.698116 0.549615 1
0.819608 0.698116 0.549615 1
0.819608 0.698116 0.549615 1
0.819608 0.698116 0.549615 1
0.819608 0.698116 0.549615 1
0.819608 0.698116 0.549615 1
0.819608 0.698116 0.549615 1
0.819608 0.698116 0.549615 1
0.819608 0.698116 0.549615 1
0.819608 0.698116 0.549615 1
0.819608 0.698116 0.549615 1
0.819608 0.698116 0.549615 1
0.819608 0.698116 0.549615 1
0.819608 0.698116 0.549615 1
0.819608 0.698116 0.549615 1
0.819608 0.698116 0.549615 1
0.819608 0.698116 0.549615 1
0.819608 0.698116 0.549615 1
0.819608 0.698116 0.549615 1
0.819608 0.698116 0.549615 1
0.819608 0.698116 0.549615 1
0.819608 0.698116 0.549615 1
0.819608 0.698116 0.549615 1
0.819608 0.698116 0.549615 1
0.819608 0.698116 0.549615 1
0.819608 0.698116 0.549615 1
0.819608 0.698116 0.549615 1
0.819608 0.698116 0.549615 1
0.819608 0.698116 0.549615 1
0.819608 0.698116 0.549615 1
0.819608 0.698116 0.549615 1
0.819608 0.698116 0.549615 1
0.819608 0.698116 0.549615 1
0.819608 0.698116 0.549615 1
0.819608 0.698116 0.549615 1
0.819608 0.698116 0.549615 1
0.819608 0.698116 0.549615 1
0.819608 0.698116 0.549615 1
0.819608 0.698116 0.549615 1
0.819608 0.698116 0.549615 1
0.819608 0.698116 0.549615 1
0.819608 0.698116 0.549615 1
0.819608 0.698116 0.549615 1
0.819608 0.698116 0.549615 1
0.819608 0.698116 0.549615 1
0.819608 0.698116 0.549615 1
0.819608 0.698116 0.549615 1
0.819608 0.698116 0.549615 1
0.819608 0.698116 0.549615 1
0.819608 0.698116 0.549615 1
0.819608 0.698116 0.549615 1
0.819608 0.698116 0.549615 1
0.819608 0.698116 0.549615 1
0.819608 0.698116 0.549615 1
0.819608 0.698116 0.549615 1

