# vtk DataFile Version 3.0
Gocad TSurf to VTK
ASCII
DATASET POLYDATA
POINTS 122 float
21600900.000 4570950.000 210.000
21600862.500 4571030.000 223.750
21600943.227 4571021.926 292.364
21600896.031 4571094.832 293.051
21600946.438 4571016.961 292.318
21600700.000 4570960.000 170.000
21600687.500 4571038.750 188.750
21600500.000 4570970.000 210.000
21600825.000 4571110.000 237.500
21600675.000 4571117.500 207.500
21600890.453 4571103.453 293.133
21600846.039 4571172.066 293.779
21600837.680 4571184.980 293.901
21600787.500 4571190.000 251.250
21600797.109 4571247.656 294.492
21600750.000 4571270.000 265.000
21600650.000 4571275.000 245.000
21600784.906 4571266.508 294.669
21600750.000 4571320.434 295.177
21600732.133 4571348.035 295.437
21600712.500 4571350.000 278.750
21600706.406 4571387.781 295.812
21600637.500 4571353.750 263.750
21600550.000 4571280.000 265.000
21600675.000 4571430.000 292.500
21600625.000 4571432.500 282.500
21600679.359 4571429.563 296.206
21600671.078 4571442.363 296.326
21600664.297 4571452.836 296.425
21600632.805 4571480.883 297.327
21600604.211 4571470.055 298.927
21600575.000 4571435.000 292.500
21600581.695 4571476.508 299.864
21600562.500 4571357.500 278.750
21600500.000 4571435.000 228.750
21600500.000 4571357.500 225.625
21600500.000 4571280.000 222.500
21600437.500 4571351.250 225.625
21600425.000 4571427.500 228.750
21600325.000 4571358.750 278.125
21600412.500 4571503.750 231.875
21600350.000 4571432.500 263.750
21600500.000 4571512.500 231.875
21600400.000 4571580.000 235.000
21600579.219 4571512.500 299.208
21600500.000 4571590.000 235.000
21600578.680 4571520.316 299.066
21600573.875 4571590.000 297.796
21600335.289 4571580.000 309.416
21600338.258 4571554.070 309.832
21600328.398 4571505.434 311.350
21600314.539 4571474.340 312.681
21600297.664 4571388.391 315.338
21600291.844 4571358.750 316.254
21600283.672 4571317.117 317.540
21600300.000 4571285.000 292.500
21600450.000 4571275.000 222.500
21600277.359 4571285.000 318.533
21600267.328 4571233.887 320.113
21600275.000 4571211.250 306.875
21600500.000 4571125.000 216.250
21600262.883 4571211.250 320.812
21600257.938 4571186.086 321.590
21600246.195 4571126.270 323.439
21600247.570 4571109.199 323.740
21600251.820 4571069.723 323.981
21600249.945 4571055.246 324.229
21600253.992 4570986.402 324.805
21600537.500 4571202.500 251.250
21600500.000 4571202.500 219.375
21600946.703 4571016.547 292.310
21600995.180 4570940.480 290.904
21600900.000 4570495.000 293.125
21600750.000 4570575.000 210.000
21600800.000 4570700.000 210.000
21600700.000 4570513.750 205.000
21600900.000 4570625.000 269.375
21600900.000 4570430.000 305.000
21600700.000 4570450.000 210.000
21600912.500 4570493.750 303.750
21600924.922 4570557.121 302.507
21600924.977 4570557.449 302.492
21600932.859 4570605.633 300.245
21600935.453 4570621.453 299.507
21600944.828 4570678.797 296.833
21600900.000 4570690.000 257.500
21600945.914 4570685.410 296.525
21600948.852 4570703.402 295.686
21600956.641 4570743.242 294.882
21600900.000 4570755.000 245.625
21600825.000 4570762.500 210.000
21600957.805 4570749.219 294.762
21600969.320 4570808.148 293.573
21600850.000 4570825.000 210.000
21600969.313 4570813.070 293.519
21600981.188 4570873.898 292.292
21600993.055 4570934.680 291.066
21600900.000 4570950.000 210.000
21600700.000 4570960.000 170.000
21600995.180 4570940.480 290.904
21600675.000 4570898.750 176.875
21600500.000 4570970.000 210.000
21600475.000 4570911.250 227.500
21600600.000 4570715.000 197.500
21600256.508 4570973.816 324.828
21600266.250 4570925.168 324.916
21600253.992 4570986.402 324.805
21600273.266 4570890.145 324.979
21600425.000 4570793.750 262.500
21600500.000 4570782.500 215.625
21600290.781 4570802.699 325.136
21600375.000 4570676.250 297.500
21600500.000 4570720.000 217.500
21600302.344 4570744.941 325.240
21600321.828 4570647.668 325.416
21600334.953 4570582.137 325.534
21600500.000 4570595.000 221.250
21600335.641 4570560.953 325.737
21600500.000 4570470.000 225.000
21600335.891 4570553.227 325.811
21600337.797 4570494.332 326.376
21600700.000 4570768.750 185.000

POLYGONS 165 660
3 66 7 67
3 45 46 44
3 15 20 19
3 20 22 24
3 63 59 60
3 57 54 55
3 55 69 60
3 15 13 9
3 1 8 10
3 8 12 11
3 48 43 40
3 35 33 23
3 1 6 8
3 42 45 44
3 50 40 41
3 0 5 1
3 31 42 32
3 28 24 29
3 13 15 17
3 22 33 25
3 34 31 33
3 20 21 19
3 54 39 55
3 20 24 26
3 13 17 14
3 25 30 29
3 26 24 27
3 64 63 60
3 20 16 22
3 25 33 31
3 36 23 68
3 59 58 55
3 8 9 13
3 35 23 36
3 18 15 19
3 24 22 25
3 46 45 47
3 8 6 9
3 31 32 30
3 13 14 12
3 16 23 22
3 1 5 6
3 69 68 60
3 37 35 36
3 40 34 38
3 68 16 9
3 17 15 18
3 42 31 34
3 70 0 4
3 53 52 39
3 52 51 41
3 37 34 35
3 38 39 41
3 42 34 40
3 56 36 69
3 65 60 7
3 15 16 20
3 1 10 3
3 60 68 9
3 16 15 9
3 54 53 39
3 24 25 29
3 0 1 2
3 58 57 55
3 62 61 59
3 49 48 40
3 6 7 60
3 50 49 40
3 43 42 40
3 5 7 6
3 59 55 60
3 10 8 11
3 25 31 30
3 38 41 40
3 16 68 23
3 9 6 60
3 0 2 4
3 21 20 26
3 71 0 70
3 55 56 69
3 38 34 37
3 8 13 12
3 22 23 33
3 56 39 37
3 36 68 69
3 61 58 59
3 1 3 2
3 32 42 44
3 66 65 7
3 65 64 60
3 43 45 42
3 37 39 38
3 37 36 56
3 63 62 59
3 24 28 27
3 51 50 41
3 34 33 35
3 56 55 39
3 52 41 39
3 92 91 89
3 92 89 93
3 119 117 118
3 104 106 101
3 96 95 93
3 119 118 120
3 113 110 111
3 76 72 74
3 114 113 111
3 88 85 89
3 112 103 116
3 79 77 72
3 103 112 109
3 85 76 74
3 110 108 111
3 89 90 93
3 111 112 116
3 104 101 102
3 102 100 103
3 89 85 90
3 90 121 100
3 82 72 76
3 86 84 85
3 108 112 111
3 72 77 73
3 98 97 93
3 109 102 103
3 75 118 116
3 121 90 74
3 105 104 102
3 78 75 73
3 84 76 85
3 96 93 97
3 101 98 100
3 72 73 74
3 107 105 102
3 81 80 72
3 109 108 102
3 103 75 116
3 91 88 89
3 88 87 85
3 83 82 76
3 103 121 74
3 87 86 85
3 85 74 90
3 107 102 108
3 82 81 72
3 117 116 118
3 84 83 76
3 101 100 102
3 96 97 99
3 115 111 116
3 80 79 72
3 115 114 111
3 94 92 93
3 117 115 116
3 100 121 103
3 78 118 75
3 95 94 93
3 109 112 108
3 100 98 93
3 74 73 75
3 110 107 108
3 75 103 74
3 77 78 73
3 93 90 100

POINT_DATA 122
COLOR_SCALARS GocadColor 4
0.662745 0.662745 0.662745 1
0.662745 0.662745 0.662745 1
0.662745 0.662745 0.662745 1
0.662745 0.662745 0.662745 1
0.662745 0.662745 0.662745 1
0.662745 0.662745 0.662745 1
0.662745 0.662745 0.662745 1
0.662745 0.662745 0.662745 1
0.662745 0.662745 0.662745 1
0.662745 0.662745 0.662745 1
0.662745 0.662745 0.662745 1
0.662745 0.662745 0.662745 1
0.662745 0.662745 0.662745 1
0.662745 0.662745 0.662745 1
0.662745 0.662745 0.662745 1
0.662745 0.662745 0.662745 1
0.662745 0.662745 0.662745 1
0.662745 0.662745 0.662745 1
0.662745 0.662745 0.662745 1
0.662745 0.662745 0.662745 1
0.662745 0.662745 0.662745 1
0.662745 0.662745 0.662745 1
0.662745 0.662745 0.662745 1
0.662745 0.662745 0.662745 1
0.662745 0.662745 0.662745 1
0.662745 0.662745 0.662745 1
0.662745 0.662745 0.662745 1
0.662745 0.662745 0.662745 1
0.662745 0.662745 0.662745 1
0.662745 0.662745 0.662745 1
0.662745 0.662745 0.662745 1
0.662745 0.662745 0.662745 1
0.662745 0.662745 0.662745 1
0.662745 0.662745 0.662745 1
0.662745 0.662745 0.662745 1
0.662745 0.662745 0.662745 1
0.662745 0.662745 0.662745 1
0.662745 0.662745 0.662745 1
0.662745 0.662745 0.662745 1
0.662745 0.662745 0.662745 1
0.662745 0.662745 0.662745 1
0.662745 0.662745 0.662745 1
0.662745 0.662745 0.662745 1
0.662745 0.662745 0.662745 1
0.662745 0.662745 0.662745 1
0.662745 0.662745 0.662745 1
0.662745 0.662745 0.662745 1
0.662745 0.662745 0.662745 1
0.662745 0.662745 0.662745 1
0.662745 0.662745 0.662745 1
0.662745 0.662745 0.662745 1
0.662745 0.662745 0.662745 1
0.662745 0.662745 0.662745 1
0.662745 0.662745 0.662745 1
0.662745 0.662745 0.662745 1
0.662745 0.662745 0.662745 1
0.662745 0.662745 0.662745 1
0.662745 0.662745 0.662745 1
0.662745 0.662745 0.662745 1
0.662745 0.662745 0.662745 1
0.662745 0.662745 0.662745 1
0.662745 0.662745 0.662745 1
0.662745 0.662745 0.662745 1
0.662745 0.662745 0.662745 1
0.662745 0.662745 0.662745 1
0.662745 0.662745 0.662745 1
0.662745 0.662745 0.662745 1
0.662745 0.662745 0.662745 1
0.662745 0.662745 0.662745 1
0.662745 0.662745 0.662745 1
0.662745 0.662745 0.662745 1
0.662745 0.662745 0.662745 1
0.662745 0.662745 0.662745 1
0.662745 0.662745 0.662745 1
0.662745 0.662745 0.662745 1
0.662745 0.662745 0.662745 1
0.662745 0.662745 0.662745 1
0.662745 0.662745 0.662745 1
0.662745 0.662745 0.662745 1
0.662745 0.662745 0.662745 1
0.662745 0.662745 0.662745 1
0.662745 0.662745 0.662745 1
0.662745 0.662745 0.662745 1
0.662745 0.662745 0.662745 1
0.662745 0.662745 0.662745 1
0.662745 0.662745 0.662745 1
0.662745 0.662745 0.662745 1
0.662745 0.662745 0.662745 1
0.662745 0.662745 0.662745 1
0.662745 0.662745 0.662745 1
0.662745 0.662745 0.662745 1
0.662745 0.662745 0.662745 1
0.662745 0.662745 0.662745 1
0.662745 0.662745 0.662745 1
0.662745 0.662745 0.662745 1
0.662745 0.662745 0.662745 1
0.662745 0.662745 0.662745 1
0.662745 0.662745 0.662745 1
0.662745 0.662745 0.662745 1
0.662745 0.662745 0.662745 1
0.662745 0.662745 0.662745 1
0.662745 0.662745 0.662745 1
0.662745 0.662745 0.662745 1
0.662745 0.662745 0.662745 1
0.662745 0.662745 0.662745 1
0.662745 0.662745 0.662745 1
0.662745 0.662745 0.662745 1
0.662745 0.662745 0.662745 1
0.662745 0.662745 0.662745 1
0.662745 0.662745 0.662745 1
0.662745 0.662745 0.662745 1
0.662745 0.662745 0.662745 1
0.662745 0.662745 0.662745 1
0.662745 0.662745 0.662745 1
0.662745 0.662745 0.662745 1
0.662745 0.662745 0.662745 1
0.662745 0.662745 0.662745 1
0.662745 0.662745 0.662745 1
0.662745 0.662745 0.662745 1
0.662745 0.662745 0.662745 1
0.662745 0.662745 0.662745 1
0.662745 0.662745 0.662745 1

