# vtk DataFile Version 3.0
Gocad TSurf to VTK
ASCII
DATASET POLYDATA
POINTS 300 float
21612725.000 4584325.000 390.000
21612725.000 4584325.000 390.000
21612700.000 4584450.000 375.000
21611675.000 4584017.500 -611.250
21612750.000 4584200.000 405.000
21612775.000 4584075.000 420.000
21612787.398 4584013.016 427.438
21612789.328 4583950.641 425.076
21612789.336 4583947.250 424.956
21610900.000 4583460.000 -1355.000
21612787.625 4583941.789 424.928
21611000.000 4583605.000 -1256.250
21611200.000 4583895.000 -1058.750
21610925.000 4583580.000 -1340.000
21610950.000 4583700.000 -1325.000
21610625.000 4583497.500 -1632.500
21610750.000 4583645.000 -1520.000
21610450.000 4583160.000 -1612.500
21610500.000 4583350.000 -1745.000
21611300.000 4583340.000 -907.500
21610225.000 4583010.000 -1741.250
21612525.000 4583767.500 211.250
21612000.000 4583125.000 -233.750
21612748.125 4583611.313 417.136
21612737.477 4583522.188 415.034
21612729.219 4583421.242 412.292
21612729.305 4583420.727 412.266
21612743.734 4583280.508 398.423
21612746.117 4583257.313 396.132
21612300.000 4583030.000 -7.500
21612753.789 4583182.773 388.773
21611350.000 4582835.000 -487.500
21610250.000 4582757.500 -1531.250
21611000.000 4582450.000 -515.000
21610750.000 4582552.500 -853.750
21612600.000 4582935.000 218.750
21611450.000 4582410.000 -288.750
21612733.281 4583074.945 379.522
21612729.422 4582972.211 370.016
21612728.406 4582945.023 367.500
21612729.070 4582873.695 364.757
21612782.172 4582780.984 359.517
21612728.242 4582672.375 357.098
21611900.000 4582370.000 -62.500
21612727.117 4582652.070 356.359
21610925.000 4582345.000 -536.250
21610525.000 4582085.000 -697.500
21610350.000 4582140.000 -795.000
21611825.000 4581775.000 -45.000
21610100.000 4581617.500 -671.250
21612691.281 4582232.570 341.494
21612678.703 4582168.703 339.459
21612707.477 4582298.227 343.481
21612693.547 4582420.695 348.602
21612720.813 4582538.484 352.225
21612650.000 4582140.000 327.500
21612656.938 4582115.727 338.133
21612350.000 4581840.000 202.500
21612653.945 4582108.445 337.951
21609900.000 4581480.000 -695.000
21610800.000 4581275.000 -375.000
21609925.000 4581595.000 -761.250
21609950.000 4581710.000 -827.500
21609975.000 4581825.000 -893.750
21610000.000 4581940.000 -960.000
21610000.000 4582017.500 -967.500
21610000.000 4582095.000 -975.000
21610000.000 4582172.500 -982.500
21610000.000 4582250.000 -990.000
21610000.000 4582402.500 -1210.000
21610500.000 4582655.000 -1192.500
21610000.000 4582555.000 -1430.000
21610000.000 4582707.500 -1650.000
21610000.000 4582860.000 -1870.000
21610125.000 4582982.500 -1838.750
21610250.000 4583105.000 -1807.500
21610375.000 4583227.500 -1776.250
21611250.000 4581172.500 -215.000
21609900.000 4581342.500 -695.000
21609900.000 4581205.000 -695.000
21609900.000 4581067.500 -695.000
21609900.000 4580930.000 -695.000
21610725.000 4580387.500 -452.500
21609850.000 4580705.000 -727.500
21612225.000 4580695.000 173.750
21611875.000 4580945.000 21.250
21612400.000 4580570.000 250.000
21612450.000 4580710.000 271.250
21610850.000 4579725.000 -427.500
21609750.000 4580255.000 -792.500
21612050.000 4580322.500 93.750
21611350.000 4579827.500 -218.750
21612425.000 4580440.000 250.000
21612450.000 4580310.000 250.000
21612475.000 4580180.000 250.000
21612500.000 4580050.000 250.000
21611000.000 4579580.000 -375.000
21612350.000 4579840.000 173.750
21611225.000 4579487.500 -295.000
21612650.000 4579690.000 261.250
21612700.000 4579570.000 265.000
21611675.000 4579302.500 -135.000
21612575.000 4579320.000 171.250
21611975.000 4579050.000 -68.750
21612950.000 4579390.000 292.500
21612325.000 4578820.000 -16.250
21613200.000 4579210.000 320.000
21612125.000 4578730.000 -96.250
21611850.000 4578600.000 -162.500
21612200.000 4578570.000 -110.000
21610300.000 4577430.000 -670.000
21610425.000 4577745.000 -582.500
21610875.000 4577655.000 -488.750
21610050.000 4576890.000 -655.000
21612300.000 4578510.000 -68.750
21611450.000 4577880.000 -307.500
21613050.000 4578990.000 253.750
21612750.000 4578550.000 121.250
21613300.000 4579175.000 358.750
21613400.000 4579140.000 397.500
21613300.000 4579175.000 358.750
21613500.000 4579105.000 436.250
21613500.000 4579105.000 436.250
21613600.000 4579070.000 475.000
21613700.000 4579070.000 475.000
21612600.000 4578330.000 55.000
21613775.000 4579042.500 516.250
21613850.000 4579042.500 516.250
21613725.000 4578935.000 443.750
21613950.000 4579015.000 557.500
21613775.000 4578665.000 381.250
21614125.000 4578987.500 598.750
21613650.000 4578867.500 391.250
21613600.000 4578665.000 307.500
21613050.000 4578295.000 97.500
21613800.000 4578027.500 98.750
21612825.000 4577940.000 -80.000
21614075.000 4578615.000 423.750
21614125.000 4577845.000 351.250
21614150.000 4578987.500 598.750
21614300.000 4578960.000 640.000
21614600.000 4578915.000 642.500
21614900.000 4578870.000 645.000
21614450.000 4578937.500 641.250
21614750.000 4578892.500 643.750
21614600.000 4578915.000 642.500
21614450.000 4578937.500 641.250
21614300.000 4578960.000 640.000
21613600.000 4577620.000 45.000
21613250.000 4577715.000 -40.000
21613000.000 4577030.000 170.000
21612975.000 4577225.000 96.250
21613350.000 4576820.000 57.500
21612700.000 4576195.000 -242.500
21612800.000 4576880.000 225.000
21612575.000 4575795.000 -236.250
21612325.000 4575565.000 -376.250
21612400.000 4576187.500 55.000
21611800.000 4574770.000 -530.000
21611950.000 4575185.000 -358.750
21612000.000 4575500.000 -250.000
21611775.000 4575020.000 -460.000
21611750.000 4575270.000 -390.000
21611400.000 4574960.000 -572.500
21610925.000 4574062.500 -926.250
21611200.000 4575055.000 -593.750
21610900.000 4573700.000 -1030.000
21610725.000 4573852.500 -1033.750
21611800.000 4574472.500 -481.250
21610975.000 4573502.500 -936.250
21611800.000 4574472.500 -481.250
21611800.000 4574175.000 -432.500
21611800.000 4573877.500 -383.750
21611575.000 4573610.000 -508.750
21611125.000 4573107.500 -748.750
21611800.000 4573580.000 -335.000
21611200.000 4572910.000 -655.000
21611750.000 4573245.000 -370.000
21611700.000 4572910.000 -405.000
21611300.000 4572742.500 -610.000
21611050.000 4572105.000 -787.500
21611500.000 4572407.500 -520.000
21611325.000 4572172.500 -631.250
21611650.000 4572575.000 -440.000
21611600.000 4572240.000 -475.000
21611000.000 4571450.000 -850.000
21610875.000 4571580.000 -912.500
21610575.000 4571145.000 -1122.500
21610550.000 4571420.000 -1115.000
21610600.000 4570870.000 -1130.000
21610525.000 4571695.000 -1107.500
21610625.000 4571840.000 -1037.500
21610500.000 4571970.000 -1100.000
21610475.000 4572267.500 -1146.250
21610800.000 4573035.000 -970.000
21610450.000 4572565.000 -1192.500
21610425.000 4572862.500 -1238.750
21610400.000 4573160.000 -1285.000
21610350.000 4573447.500 -1225.000
21610300.000 4573735.000 -1165.000
21610550.000 4574005.000 -1037.500
21610250.000 4574022.500 -1105.000
21610200.000 4574310.000 -1045.000
21610500.000 4575250.000 -852.500
21610925.000 4575855.000 -626.250
21610150.000 4574570.000 -1056.250
21610100.000 4574830.000 -1067.500
21610050.000 4575090.000 -1078.750
21610000.000 4575350.000 -1090.000
21610900.000 4576090.000 -630.000
21610625.000 4576155.000 -632.500
21611300.000 4576755.000 -212.500
21609950.000 4575600.000 -977.500
21609900.000 4575850.000 -865.000
21610075.000 4576285.000 -637.500
21610300.000 4576485.000 -497.500
21609850.000 4576100.000 -752.500
21609800.000 4576350.000 -640.000
21612400.000 4577970.000 23.750
21612600.000 4578125.000 -15.000
21612200.000 4577610.000 -7.500
21611800.000 4576890.000 -70.000
21612400.000 4577765.000 -20.000
21612300.000 4577482.500 -57.500
21612600.000 4577920.000 -85.000
21612600.000 4577715.000 -155.000
21612600.000 4577510.000 -225.000
21612200.000 4577200.000 -95.000
21612650.000 4577352.500 -112.500
21612150.000 4577332.500 -27.500
21612000.000 4577000.000 -55.000
21612300.000 4577065.000 -8.750
21611950.000 4576775.000 -13.750
21611775.000 4576610.000 -115.000
21612100.000 4576857.500 -2.500
21612100.000 4576660.000 42.500
21612400.000 4576930.000 77.500
21612300.000 4576830.000 97.500
21612500.000 4577040.000 65.000
21612700.000 4577195.000 0.000
21612650.000 4576960.000 145.000
21612750.000 4577037.500 112.500
21612500.000 4576795.000 163.750
21612600.000 4576660.000 250.000
21612400.000 4576430.000 155.000
21612200.000 4576230.000 30.000
21612250.000 4576545.000 98.750
21612100.000 4575865.000 -110.000
21611500.000 4575850.000 -345.000
21611300.000 4575930.000 -440.000
21611725.000 4576050.000 -205.000
21612100.000 4576395.000 5.000
21612000.000 4576560.000 -20.000
21612200.000 4576715.000 50.000
21612900.000 4577150.000 71.250
21612800.000 4577270.000 -27.500
21612925.000 4577615.000 -51.250
21609925.000 4576620.000 -647.500
21609800.000 4576542.500 -688.750
21609800.000 4576735.000 -737.500
21609800.000 4576927.500 -786.250
21609800.000 4577120.000 -835.000
21609775.000 4577390.000 -766.250
21610150.000 4577622.500 -642.500
21609750.000 4577660.000 -697.500
21610000.000 4577815.000 -615.000
21609725.000 4577930.000 -628.750
21609700.000 4578200.000 -560.000
21610800.000 4578690.000 -320.000
21610250.000 4578930.000 -612.500
21610950.000 4579357.500 -361.250
21609700.000 4578442.500 -646.250
21609700.000 4578685.000 -732.500
21609700.000 4578927.500 -818.750
21609700.000 4579170.000 -905.000
21609875.000 4579417.500 -825.000
21609700.000 4579385.000 -885.000
21609700.000 4579600.000 -865.000
21609700.000 4579815.000 -845.000
21609700.000 4580030.000 -825.000
21611150.000 4578660.000 -267.500
21613075.000 4579300.000 306.250
21609800.000 4580480.000 -760.000
21612500.000 4580850.000 292.500
21612527.188 4580926.125 304.055
21612527.188 4580926.125 304.055
21612528.086 4580988.539 304.254
21612529.867 4581112.102 304.648
21612538.945 4581215.477 305.235
21612500.000 4581270.000 286.250
21612529.398 4581272.938 305.067
21612522.859 4581489.570 305.430
21612517.859 4581536.141 305.386
21612517.820 4581792.055 325.965
21612552.000 4581860.336 331.745
21610875.000 4583792.500 -1407.500
21610975.000 4583820.000 -1310.000
21611000.000 4583940.000 -1295.000
21611300.000 4584040.000 -960.000
21612700.000 4584460.000 375.000

POLYGONS 452 1808
3 6 5 3
3 226 227 228
3 171 168 169
3 253 237 234
3 291 57 290
3 134 133 132
3 138 135 148
3 239 238 241
3 244 242 246
3 45 36 33
3 96 98 97
3 237 236 234
3 158 166 168
3 108 109 107
3 280 268 111
3 206 205 203
3 139 130 137
3 103 102 101
3 95 96 97
3 210 208 209
3 244 243 242
3 251 245 246
3 249 248 250
3 176 175 173
3 71 70 32
3 84 87 283
3 163 162 165
3 69 68 34
3 238 240 241
3 245 244 246
3 93 90 91
3 160 247 248
3 84 283 85
3 164 158 163
3 13 9 11
3 156 155 153
3 151 148 149
3 73 32 22
3 271 267 269
3 149 256 151
3 202 200 165
3 187 186 188
3 153 152 150
3 106 109 116
3 238 239 231
3 295 16 14
3 96 95 91
3 9 17 19
3 157 245 247
3 31 29 22
3 282 89 82
3 186 185 182
3 296 14 11
3 128 132 130
3 161 162 163
3 113 259 257
3 212 208 210
3 274 273 269
3 241 254 239
3 35 37 30
3 3 299 298
3 250 245 251
3 186 182 180
3 76 75 17
3 10 21 23
3 162 161 159
3 214 213 210
3 222 218 220
3 243 154 242
3 106 118 120
3 166 197 194
3 263 110 111
3 31 34 33
3 167 166 164
3 36 43 42
3 3 5 4
3 239 254 255
3 219 136 134
3 195 193 194
3 24 22 25
3 67 66 47
3 48 55 51
3 296 12 297
3 219 125 218
3 35 29 33
3 217 125 115
3 213 212 210
3 85 284 286
3 108 107 103
3 109 110 112
3 216 214 217
3 255 254 151
3 73 72 32
3 264 263 265
3 16 13 14
3 143 146 147
3 199 200 201
3 207 206 203
3 3 12 11
3 48 59 57
3 105 106 104
3 71 69 70
3 272 271 269
3 62 61 49
3 65 64 46
3 270 96 269
3 268 265 111
3 13 11 14
3 199 167 200
3 219 224 136
3 182 181 179
3 18 76 17
3 204 203 165
3 137 135 138
3 43 52 53
3 276 274 275
3 6 3 7
3 19 73 22
3 295 296 297
3 248 204 165
3 279 275 88
3 222 223 225
3 185 184 182
3 214 215 217
3 7 3 8
3 221 233 232
3 77 81 82
3 211 209 221
3 131 130 139
3 236 237 242
3 179 176 180
3 273 272 269
3 218 215 211
3 236 238 231
3 22 26 25
3 102 100 101
3 81 83 82
3 260 259 113
3 229 230 227
3 163 165 164
3 245 250 248
3 198 167 199
3 197 166 198
3 68 33 34
3 252 235 232
3 242 237 246
3 267 268 269
3 48 51 50
3 88 96 91
3 55 56 51
3 215 125 217
3 211 215 210
3 215 218 125
3 169 194 174
3 226 256 136
3 230 221 232
3 154 150 241
3 16 15 13
3 192 191 180
3 192 176 193
3 36 42 41
3 253 235 246
3 2 299 3
3 113 257 115
3 280 103 101
3 46 49 48
3 90 86 88
3 261 260 113
3 40 35 41
3 252 251 235
3 82 89 88
3 80 77 60
3 150 154 153
3 125 219 134
3 131 139 140
3 32 70 31
3 82 84 77
3 193 176 194
3 224 225 136
3 127 130 129
3 116 114 117
3 86 90 92
3 72 71 32
3 17 75 20
3 265 263 111
3 225 226 136
3 256 149 136
3 160 159 156
3 35 36 41
3 150 148 151
3 220 218 211
3 158 161 163
3 12 3 298
3 233 209 249
3 3 9 8
3 295 14 296
3 236 231 234
3 127 128 130
3 243 157 153
3 247 245 248
3 145 143 144
3 134 136 135
3 160 162 159
3 96 274 269
3 234 232 235
3 176 174 194
3 231 230 234
3 132 128 124
3 85 286 287
3 262 263 264
3 149 148 135
3 247 160 156
3 205 202 203
3 197 196 194
3 123 124 126
3 84 86 87
3 209 208 203
3 239 255 228
3 248 249 204
3 112 110 113
3 174 173 169
3 96 270 98
3 223 226 225
3 61 59 49
3 52 43 50
3 84 85 77
3 258 217 257
3 121 123 122
3 229 223 220
3 21 22 24
3 102 105 104
3 251 246 235
3 123 121 117
3 222 225 224
3 63 49 46
3 119 121 122
3 82 86 84
3 227 230 231
3 91 95 94
3 228 255 151
3 264 265 266
3 15 9 13
3 121 116 117
3 173 172 169
3 80 81 77
3 203 202 165
3 170 168 171
3 192 190 191
3 267 266 265
3 137 130 135
3 102 103 105
3 156 158 155
3 152 138 150
3 165 200 164
3 209 204 249
3 191 186 180
3 60 77 57
3 254 150 151
3 234 235 253
3 208 207 203
3 236 240 238
3 0 2 3
3 237 253 246
3 29 31 33
3 129 130 131
3 98 270 268
3 168 166 169
3 9 15 17
3 115 125 114
3 289 85 288
3 64 63 46
3 162 248 165
3 130 133 135
3 230 232 234
3 172 171 169
3 43 46 48
3 44 43 54
3 141 140 137
3 223 222 220
3 181 178 179
3 57 292 293
3 100 99 97
3 142 141 137
3 109 114 116
3 267 265 268
3 180 182 179
3 256 228 151
3 221 230 220
3 12 296 11
3 274 96 275
3 132 124 134
3 29 35 30
3 75 74 20
3 126 124 127
3 129 126 127
3 261 110 262
3 109 112 114
3 142 137 138
3 85 287 288
3 174 176 173
3 9 10 8
3 111 108 280
3 175 176 177
3 204 209 203
3 119 116 121
3 173 175 172
3 90 93 92
3 107 105 103
3 33 36 35
3 43 48 50
3 110 261 113
3 38 35 39
3 125 117 114
3 118 116 119
3 128 127 124
3 187 185 186
3 268 280 101
3 132 133 130
3 57 289 290
3 57 291 292
3 79 80 60
3 19 22 21
3 114 112 115
3 211 221 220
3 262 110 263
3 107 109 105
3 182 184 181
3 229 227 223
3 83 282 82
3 69 34 70
3 111 110 108
3 39 35 40
3 42 43 44
3 63 62 49
3 55 57 58
3 249 250 233
3 125 124 117
3 283 285 284
3 15 18 17
3 184 183 181
3 256 226 228
3 120 118 119
3 3 4 0
3 89 279 88
3 106 116 118
3 78 79 60
3 32 31 22
3 158 156 159
3 230 229 220
3 95 97 99
3 22 29 28
3 162 160 248
3 228 227 231
3 57 294 58
3 29 30 28
3 158 168 170
3 57 85 289
3 221 209 233
3 31 70 34
3 9 21 10
3 12 298 297
3 279 278 275
3 46 43 45
3 59 60 57
3 101 100 97
3 0 4 1
3 123 117 124
3 108 103 280
3 94 93 91
3 290 289 288
3 136 149 135
3 23 21 24
3 216 213 214
3 144 143 142
3 43 36 45
3 77 85 57
3 55 58 56
3 153 157 156
3 142 143 141
3 191 190 186
3 49 59 48
3 195 194 196
3 102 104 100
3 198 166 167
3 177 176 178
3 154 243 153
3 224 219 218
3 101 98 268
3 47 46 45
3 250 251 233
3 239 228 231
3 27 22 28
3 190 188 186
3 21 9 19
3 270 269 268
3 140 139 137
3 124 125 134
3 176 192 180
3 59 78 60
3 166 158 164
3 278 277 275
3 33 68 47
3 155 152 153
3 109 106 105
3 242 240 236
3 222 224 218
3 17 20 19
3 48 57 55
3 98 101 97
3 22 27 26
3 20 73 19
3 104 106 281
3 251 252 233
3 210 209 211
3 66 65 47
3 57 293 294
3 240 154 241
3 85 283 284
3 275 96 88
3 259 258 257
3 113 115 112
3 11 9 3
3 223 227 226
3 68 67 47
3 45 33 47
3 215 214 210
3 277 276 275
3 189 185 187
3 138 148 150
3 157 244 245
3 200 167 164
3 86 82 88
3 242 154 240
3 74 73 20
3 110 109 108
3 243 244 157
3 161 158 159
3 257 217 115
3 133 134 135
3 202 201 200
3 0 1 2
3 241 150 254
3 37 35 38
3 54 43 53
3 90 88 91
3 146 143 145
3 47 65 46
3 169 166 194
3 183 178 181
3 233 252 232
3 156 157 247
3 178 176 179

POINT_DATA 300
COLOR_SCALARS GocadColor 4
0 1 0.48333 1
0 1 0.48333 1
0 1 0.48333 1
0 1 0.48333 1
0 1 0.48333 1
0 1 0.48333 1
0 1 0.48333 1
0 1 0.48333 1
0 1 0.48333 1
0 1 0.48333 1
0 1 0.48333 1
0 1 0.48333 1
0 1 0.48333 1
0 1 0.48333 1
0 1 0.48333 1
0 1 0.48333 1
0 1 0.48333 1
0 1 0.48333 1
0 1 0.48333 1
0 1 0.48333 1
0 1 0.48333 1
0 1 0.48333 1
0 1 0.48333 1
0 1 0.48333 1
0 1 0.48333 1
0 1 0.48333 1
0 1 0.48333 1
0 1 0.48333 1
0 1 0.48333 1
0 1 0.48333 1
0 1 0.48333 1
0 1 0.48333 1
0 1 0.48333 1
0 1 0.48333 1
0 1 0.48333 1
0 1 0.48333 1
0 1 0.48333 1
0 1 0.48333 1
0 1 0.48333 1
0 1 0.48333 1
0 1 0.48333 1
0 1 0.48333 1
0 1 0.48333 1
0 1 0.48333 1
0 1 0.48333 1
0 1 0.48333 1
0 1 0.48333 1
0 1 0.48333 1
0 1 0.48333 1
0 1 0.48333 1
0 1 0.48333 1
0 1 0.48333 1
0 1 0.48333 1
0 1 0.48333 1
0 1 0.48333 1
0 1 0.48333 1
0 1 0.48333 1
0 1 0.48333 1
0 1 0.48333 1
0 1 0.48333 1
0 1 0.48333 1
0 1 0.48333 1
0 1 0.48333 1
0 1 0.48333 1
0 1 0.48333 1
0 1 0.48333 1
0 1 0.48333 1
0 1 0.48333 1
0 1 0.48333 1
0 1 0.48333 1
0 1 0.48333 1
0 1 0.48333 1
0 1 0.48333 1
0 1 0.48333 1
0 1 0.48333 1
0 1 0.48333 1
0 1 0.48333 1
0 1 0.48333 1
0 1 0.48333 1
0 1 0.48333 1
0 1 0.48333 1
0 1 0.48333 1
0 1 0.48333 1
0 1 0.48333 1
0 1 0.48333 1
0 1 0.48333 1
0 1 0.48333 1
0 1 0.48333 1
0 1 0.48333 1
0 1 0.48333 1
0 1 0.48333 1
0 1 0.48333 1
0 1 0.48333 1
0 1 0.48333 1
0 1 0.48333 1
0 1 0.48333 1
0 1 0.48333 1
0 1 0.48333 1
0 1 0.48333 1
0 1 0.48333 1
0 1 0.48333 1
0 1 0.48333 1
0 1 0.48333 1
0 1 0.48333 1
0 1 0.48333 1
0 1 0.48333 1
0 1 0.48333 1
0 1 0.48333 1
0 1 0.48333 1
0 1 0.48333 1
0 1 0.48333 1
0 1 0.48333 1
0 1 0.48333 1
0 1 0.48333 1
0 1 0.48333 1
0 1 0.48333 1
0 1 0.48333 1
0 1 0.48333 1
0 1 0.48333 1
0 1 0.48333 1
0 1 0.48333 1
0 1 0.48333 1
0 1 0.48333 1
0 1 0.48333 1
0 1 0.48333 1
0 1 0.48333 1
0 1 0.48333 1
0 1 0.48333 1
0 1 0.48333 1
0 1 0.48333 1
0 1 0.48333 1
0 1 0.48333 1
0 1 0.48333 1
0 1 0.48333 1
0 1 0.48333 1
0 1 0.48333 1
0 1 0.48333 1
0 1 0.48333 1
0 1 0.48333 1
0 1 0.48333 1
0 1 0.48333 1
0 1 0.48333 1
0 1 0.48333 1
0 1 0.48333 1
0 1 0.48333 1
0 1 0.48333 1
0 1 0.48333 1
0 1 0.48333 1
0 1 0.48333 1
0 1 0.48333 1
0 1 0.48333 1
0 1 0.48333 1
0 1 0.48333 1
0 1 0.48333 1
0 1 0.48333 1
0 1 0.48333 1
0 1 0.48333 1
0 1 0.48333 1
0 1 0.48333 1
0 1 0.48333 1
0 1 0.48333 1
0 1 0.48333 1
0 1 0.48333 1
0 1 0.48333 1
0 1 0.48333 1
0 1 0.48333 1
0 1 0.48333 1
0 1 0.48333 1
0 1 0.48333 1
0 1 0.48333 1
0 1 0.48333 1
0 1 0.48333 1
0 1 0.48333 1
0 1 0.48333 1
0 1 0.48333 1
0 1 0.48333 1
0 1 0.48333 1
0 1 0.48333 1
0 1 0.48333 1
0 1 0.48333 1
0 1 0.48333 1
0 1 0.48333 1
0 1 0.48333 1
0 1 0.48333 1
0 1 0.48333 1
0 1 0.48333 1
0 1 0.48333 1
0 1 0.48333 1
0 1 0.48333 1
0 1 0.48333 1
0 1 0.48333 1
0 1 0.48333 1
0 1 0.48333 1
0 1 0.48333 1
0 1 0.48333 1
0 1 0.48333 1
0 1 0.48333 1
0 1 0.48333 1
0 1 0.48333 1
0 1 0.48333 1
0 1 0.48333 1
0 1 0.48333 1
0 1 0.48333 1
0 1 0.48333 1
0 1 0.48333 1
0 1 0.48333 1
0 1 0.48333 1
0 1 0.48333 1
0 1 0.48333 1
0 1 0.48333 1
0 1 0.48333 1
0 1 0.48333 1
0 1 0.48333 1
0 1 0.48333 1
0 1 0.48333 1
0 1 0.48333 1
0 1 0.48333 1
0 1 0.48333 1
0 1 0.48333 1
0 1 0.48333 1
0 1 0.48333 1
0 1 0.48333 1
0 1 0.48333 1
0 1 0.48333 1
0 1 0.48333 1
0 1 0.48333 1
0 1 0.48333 1
0 1 0.48333 1
0 1 0.48333 1
0 1 0.48333 1
0 1 0.48333 1
0 1 0.48333 1
0 1 0.48333 1
0 1 0.48333 1
0 1 0.48333 1
0 1 0.48333 1
0 1 0.48333 1
0 1 0.48333 1
0 1 0.48333 1
0 1 0.48333 1
0 1 0.48333 1
0 1 0.48333 1
0 1 0.48333 1
0 1 0.48333 1
0 1 0.48333 1
0 1 0.48333 1
0 1 0.48333 1
0 1 0.48333 1
0 1 0.48333 1
0 1 0.48333 1
0 1 0.48333 1
0 1 0.48333 1
0 1 0.48333 1
0 1 0.48333 1
0 1 0.48333 1
0 1 0.48333 1
0 1 0.48333 1
0 1 0.48333 1
0 1 0.48333 1
0 1 0.48333 1
0 1 0.48333 1
0 1 0.48333 1
0 1 0.48333 1
0 1 0.48333 1
0 1 0.48333 1
0 1 0.48333 1
0 1 0.48333 1
0 1 0.48333 1
0 1 0.48333 1
0 1 0.48333 1
0 1 0.48333 1
0 1 0.48333 1
0 1 0.48333 1
0 1 0.48333 1
0 1 0.48333 1
0 1 0.48333 1
0 1 0.48333 1
0 1 0.48333 1
0 1 0.48333 1
0 1 0.48333 1
0 1 0.48333 1
0 1 0.48333 1
0 1 0.48333 1
0 1 0.48333 1
0 1 0.48333 1
0 1 0.48333 1
0 1 0.48333 1
0 1 0.48333 1
0 1 0.48333 1
0 1 0.48333 1
0 1 0.48333 1
0 1 0.48333 1
0 1 0.48333 1
0 1 0.48333 1
0 1 0.48333 1
0 1 0.48333 1
0 1 0.48333 1
0 1 0.48333 1
0 1 0.48333 1
0 1 0.48333 1

