# vtk DataFile Version 3.0
Gocad TSurf to VTK
ASCII
DATASET POLYDATA
POINTS 737 float
21573100.000 4581467.500 -470.000
21572800.000 4581062.500 -530.000
21573200.000 4581500.000 -495.000
21572800.000 4580960.000 -575.000
21573200.000 4581565.000 -456.250
21572800.000 4581165.000 -485.000
21573000.000 4581435.000 -445.000
21572700.000 4581025.000 -512.500
21572650.000 4581057.500 -481.250
21572750.000 4580992.500 -543.750
21572700.000 4580937.500 -568.750
21572500.000 4580600.000 -685.000
21572475.000 4580667.500 -651.250
21572750.000 4580545.000 -702.500
21572725.000 4580447.500 -755.000
21572975.000 4580815.000 -620.000
21573000.000 4580490.000 -720.000
21572975.000 4580882.500 -586.250
21573150.000 4580805.000 -597.500
21573275.000 4581287.500 -526.250
21573350.000 4581075.000 -557.500
21573325.000 4581440.000 -501.250
21573450.000 4581380.000 -507.500
21573475.000 4581650.000 -460.000
21573550.000 4581520.000 -480.000
21573400.000 4581780.000 -440.000
21573500.000 4581787.500 -440.000
21573600.000 4581795.000 -440.000
21573600.000 4582040.000 -315.000
21573425.000 4581870.000 -398.750
21573650.000 4581982.500 -346.250
21573700.000 4581925.000 -377.500
21573700.000 4581802.500 -440.000
21573750.000 4581867.500 -408.750
21573800.000 4581810.000 -440.000
21573625.000 4581390.000 -500.000
21573700.000 4581260.000 -520.000
21573575.000 4581320.000 -513.750
21573425.000 4580862.500 -588.750
21573500.000 4580650.000 -620.000
21573325.000 4580727.500 -608.750
21573150.000 4580670.000 -665.000
21573325.000 4580525.000 -710.000
21573500.000 4580380.000 -755.000
21573250.000 4580435.000 -737.500
21573175.000 4580142.500 -895.000
21573400.000 4579990.000 -965.000
21572950.000 4580295.000 -825.000
21573100.000 4580065.000 -926.250
21572800.000 4580140.000 -887.500
21573050.000 4579977.500 -988.750
21573200.000 4579230.000 -1185.000
21572700.000 4579965.000 -1012.500
21572500.000 4580215.000 -848.750
21572900.000 4579407.500 -1153.750
21572600.000 4579585.000 -1122.500
21572825.000 4579322.500 -1208.750
21572350.000 4579952.500 -1036.250
21572300.000 4579762.500 -1091.250
21572450.000 4579415.000 -1232.500
21572000.000 4579940.000 -1060.000
21572075.000 4579507.500 -1256.250
21572200.000 4580290.000 -810.000
21572000.000 4580042.500 -995.000
21572200.000 4580362.500 -778.750
21572425.000 4580595.000 -685.000
21572150.000 4580305.000 -807.500
21572100.000 4580320.000 -805.000
21572000.000 4580145.000 -930.000
21572200.000 4580435.000 -747.500
21572050.000 4580335.000 -802.500
21572350.000 4580590.000 -685.000
21572200.000 4580507.500 -716.250
21572275.000 4580585.000 -685.000
21572000.000 4580350.000 -800.000
21572000.000 4580247.500 -865.000
21572200.000 4580580.000 -685.000
21572025.000 4580600.000 -716.250
21572125.000 4580720.000 -675.000
21571875.000 4580427.500 -802.500
21571850.000 4580620.000 -747.500
21571725.000 4580202.500 -986.250
21571650.000 4580355.000 -927.500
21571800.000 4580050.000 -1045.000
21571675.000 4580167.500 -1021.250
21571850.000 4580022.500 -1048.750
21571775.000 4579937.500 -1103.750
21571900.000 4579995.000 -1052.500
21571950.000 4579967.500 -1056.250
21571750.000 4579825.000 -1162.500
21571725.000 4579712.500 -1221.250
21571700.000 4579600.000 -1280.000
21571550.000 4579595.000 -1295.000
21571475.000 4579592.500 -1302.500
21571625.000 4579597.500 -1287.500
21571350.000 4579380.000 -1392.500
21571325.000 4579275.000 -1433.750
21571300.000 4579170.000 -1475.000
21571150.000 4579160.000 -1467.500
21571075.000 4579155.000 -1463.750
21571225.000 4579165.000 -1471.250
21571075.000 4578955.000 -1531.250
21571100.000 4578890.000 -1555.000
21571625.000 4578975.000 -1462.500
21571475.000 4578810.000 -1421.250
21571775.000 4579185.000 -1402.500
21572150.000 4579060.000 -1370.000
21572250.000 4579200.000 -1330.000
21572725.000 4579215.000 -1257.500
21572675.000 4579145.000 -1277.500
21572625.000 4579090.000 -1263.750
21572575.000 4579022.500 -1218.750
21572050.000 4578950.000 -1342.500
21571950.000 4578815.000 -1252.500
21572550.000 4578987.500 -1198.750
21571900.000 4578745.000 -1212.500
21571325.000 4578607.500 -1286.250
21571250.000 4578502.500 -1226.250
21570900.000 4578670.000 -1500.000
21570700.000 4578400.000 -1320.000
21571025.000 4578882.500 -1531.250
21570875.000 4578717.500 -1490.000
21570800.000 4578645.000 -1455.000
21570950.000 4578875.000 -1507.500
21571050.000 4579020.000 -1507.500
21570850.000 4578765.000 -1480.000
21570875.000 4578867.500 -1483.750
21571025.000 4579085.000 -1483.750
21570825.000 4578812.500 -1470.000
21570700.000 4578620.000 -1410.000
21570800.000 4578860.000 -1460.000
21570600.000 4578595.000 -1365.000
21571000.000 4579150.000 -1460.000
21570700.000 4579017.500 -1446.250
21571375.000 4579485.000 -1351.250
21571400.000 4579590.000 -1310.000
21570950.000 4579340.000 -1428.750
21571600.000 4580082.500 -1090.000
21571300.000 4579737.500 -1288.750
21571400.000 4580115.000 -1135.000
21571250.000 4579670.000 -1316.250
21571100.000 4579750.000 -1322.500
21570900.000 4579530.000 -1397.500
21570700.000 4579320.000 -1432.500
21570850.000 4579235.000 -1446.250
21570550.000 4579405.000 -1418.750
21570850.000 4579720.000 -1366.250
21570500.000 4579332.500 -1418.750
21570400.000 4579490.000 -1405.000
21570600.000 4579175.000 -1432.500
21570450.000 4579035.000 -1425.000
21570625.000 4578947.500 -1442.500
21570400.000 4578730.000 -1337.500
21570300.000 4578890.000 -1355.000
21570500.000 4578570.000 -1320.000
21570350.000 4578680.000 -1313.750
21570200.000 4578790.000 -1307.500
21570275.000 4578530.000 -1182.500
21570150.000 4578690.000 -1220.000
21570400.000 4578370.000 -1145.000
21570225.000 4578487.500 -1137.500
21570525.000 4578492.500 -1300.000
21570450.000 4578342.500 -1168.750
21570550.000 4578527.500 -1320.000
21570600.000 4578485.000 -1320.000
21570650.000 4578442.500 -1320.000
21570550.000 4578415.000 -1280.000
21570575.000 4578337.500 -1260.000
21570600.000 4578260.000 -1240.000
21570500.000 4578315.000 -1192.500
21570550.000 4578287.500 -1216.250
21570525.000 4578257.500 -1187.500
21570500.000 4578235.000 -1177.500
21570450.000 4578255.000 -1135.000
21570400.000 4578210.000 -1115.000
21570375.000 4578252.500 -1082.500
21570300.000 4578185.000 -1052.500
21570300.000 4578250.000 -1030.000
21570200.000 4578160.000 -990.000
21570150.000 4578397.500 -1051.250
21570125.000 4578362.500 -1033.750
21569950.000 4578475.000 -1037.500
21570050.000 4578295.000 -1003.750
21569900.000 4578430.000 -1017.500
21569775.000 4578587.500 -1041.250
21570000.000 4578545.000 -1072.500
21569750.000 4578565.000 -1031.250
21569600.000 4578700.000 -1045.000
21569850.000 4578692.500 -1093.750
21569700.000 4578840.000 -1115.000
21569875.000 4578722.500 -1122.500
21569475.000 4578952.500 -1046.250
21569625.000 4579085.000 -1105.000
21569400.000 4578847.500 -993.750
21569250.000 4579065.000 -977.500
21569400.000 4578847.500 -993.750
21569200.000 4578995.000 -942.500
21569400.000 4578845.000 -993.750
21569200.000 4578990.000 -942.500
21569000.000 4579135.000 -891.250
21569000.000 4579142.500 -891.250
21569200.000 4578995.000 -942.500
21568800.000 4579280.000 -840.000
21568800.000 4579290.000 -840.000
21569000.000 4579142.500 -891.250
21568750.000 4579325.000 -798.750
21568750.000 4579332.500 -798.750
21568750.000 4579332.500 -798.750
21568700.000 4579370.000 -757.500
21568700.000 4579375.000 -757.500
21568700.000 4579375.000 -757.500
21568650.000 4579415.000 -716.250
21568650.000 4579417.500 -716.250
21568650.000 4579417.500 -716.250
21568600.000 4579460.000 -675.000
21568950.000 4579665.000 -851.250
21568900.000 4579540.000 -847.500
21569000.000 4579790.000 -855.000
21569100.000 4579797.500 -910.000
21568875.000 4579792.500 -788.750
21568975.000 4579897.500 -810.000
21568575.000 4579545.000 -653.750
21568750.000 4579795.000 -722.500
21568950.000 4580005.000 -765.000
21568550.000 4579630.000 -632.500
21568625.000 4579797.500 -656.250
21568925.000 4580112.500 -720.000
21568525.000 4579715.000 -611.250
21568500.000 4579800.000 -590.000
21568900.000 4580220.000 -675.000
21568775.000 4580147.500 -691.250
21568900.000 4580297.500 -706.250
21568475.000 4579832.500 -627.500
21568650.000 4580075.000 -707.500
21568900.000 4580375.000 -737.500
21568450.000 4579865.000 -665.000
21568525.000 4580002.500 -723.750
21568900.000 4580452.500 -768.750
21568425.000 4579897.500 -702.500
21568400.000 4579930.000 -740.000
21568900.000 4580530.000 -800.000
21568625.000 4580580.000 -851.250
21568725.000 4580677.500 -888.750
21568250.000 4580130.000 -806.250
21568350.000 4580630.000 -902.500
21568550.000 4580825.000 -977.500
21568100.000 4580330.000 -872.500
21568075.000 4580680.000 -953.750
21568375.000 4580972.500 -1066.250
21567950.000 4580530.000 -938.750
21567800.000 4580730.000 -1005.000
21568200.000 4581120.000 -1155.000
21568425.000 4581047.500 -1100.000
21568650.000 4580975.000 -1045.000
21568875.000 4581595.000 -1216.250
21568950.000 4581340.000 -1122.500
21568800.000 4581850.000 -1310.000
21568950.000 4581680.000 -1255.000
21569100.000 4581510.000 -1200.000
21569000.000 4581750.000 -1275.000
21569200.000 4581650.000 -1240.000
21569100.000 4581855.000 -1302.500
21569600.000 4582770.000 -1335.000
21569700.000 4582545.000 -1321.250
21569400.000 4581860.000 -1295.000
21569775.000 4582662.500 -1315.000
21569950.000 4582555.000 -1295.000
21569875.000 4582797.500 -1266.250
21570300.000 4583520.000 -1255.000
21570400.000 4583360.000 -1206.250
21570150.000 4582825.000 -1197.500
21570475.000 4583435.000 -1157.500
21570500.000 4583200.000 -1157.500
21570550.000 4583542.500 -1120.000
21570650.000 4583350.000 -1060.000
21571000.000 4584310.000 -1090.000
21571075.000 4584135.000 -996.250
21570800.000 4583565.000 -985.000
21571150.000 4584230.000 -976.250
21571300.000 4584150.000 -862.500
21571675.000 4584800.000 -766.250
21571650.000 4584530.000 -722.500
21571700.000 4585070.000 -810.000
21571775.000 4584932.500 -745.000
21571850.000 4584795.000 -680.000
21571925.000 4584657.500 -615.000
21571625.000 4584260.000 -678.750
[...]
POINT_DATA 737
COLOR_SCALARS GocadColor 4
1 0.498039 0.313726 1
1 0.498039 0.313726 1
1 0.498039 0.313726 1
1 0.498039 0.313726 1
1 0.498039 0.313726 1
1 0.498039 0.313726 1
1 0.498039 0.313726 1
1 0.498039 0.313726 1
1 0.498039 0.313726 1
1 0.498039 0.313726 1
1 0.498039 0.313726 1
1 0.498039 0.313726 1
1 0.498039 0.313726 1
1 0.498039 0.313726 1
1 0.498039 0.313726 1
1 0.498039 0.313726 1
1 0.498039 0.313726 1
1 0.498039 0.313726 1
1 0.498039 0.313726 1
1 0.498039 0.313726 1
1 0.498039 0.313726 1
1 0.498039 0.313726 1
1 0.498039 0.313726 1
1 0.498039 0.313726 1
1 0.498039 0.313726 1
1 0.498039 0.313726 1
1 0.498039 0.313726 1
1 0.498039 0.313726 1
1 0.498039 0.313726 1
1 0.498039 0.313726 1
1 0.498039 0.313726 1
1 0.498039 0.313726 1
1 0.498039 0.313726 1
1 0.498039 0.313726 1
1 0.498039 0.313726 1
1 0.498039 0.313726 1
1 0.498039 0.313726 1
1 0.498039 0.313726 1
1 0.498039 0.313726 1
1 0.498039 0.313726 1
1 0.498039 0.313726 1
1 0.498039 0.313726 1
1 0.498039 0.313726 1
1 0.498039 0.313726 1
1 0.498039 0.313726 1
1 0.498039 0.313726 1
1 0.498039 0.313726 1
1 0.498039 0.313726 1
1 0.498039 0.313726 1
1 0.498039 0.313726 1
1 0.498039 0.313726 1
1 0.498039 0.313726 1
1 0.498039 0.313726 1
1 0.498039 0.313726 1
1 0.498039 0.313726 1
1 0.498039 0.313726 1
1 0.498039 0.313726 1
1 0.498039 0.313726 1
1 0.498039 0.313726 1
1 0.498039 0.313726 1
1 0.498039 0.313726 1
1 0.498039 0.313726 1
1 0.498039 0.313726 1
1 0.498039 0.313726 1
1 0.498039 0.313726 1
1 0.498039 0.313726 1
1 0.498039 0.313726 1
1 0.498039 0.313726 1
1 0.498039 0.313726 1
1 0.498039 0.313726 1
1 0.498039 0.313726 1
1 0.498039 0.313726 1
1 0.498039 0.313726 1
1 0.498039 0.313726 1
1 0.498039 0.313726 1
1 0.498039 0.313726 1
1 0.498039 0.313726 1
1 0.498039 0.313726 1
1 0.498039 0.313726 1
1 0.498039 0.313726 1
1 0.498039 0.313726 1
1 0.498039 0.313726 1
1 0.498039 0.313726 1
1 0.498039 0.313726 1
1 0.498039 0.313726 1
1 0.498039 0.313726 1
1 0.498039 0.313726 1
1 0.498039 0.313726 1
1 0.498039 0.313726 1
1 0.498039 0.313726 1
1 0.498039 0.313726 1
1 0.498039 0.313726 1
1 0.498039 0.313726 1
1 0.498039 0.313726 1
1 0.498039 0.313726 1
1 0.498039 0.313726 1
1 0.498039 0.313726 1
1 0.498039 0.313726 1
1 0.498039 0.313726 1
1 0.498039 0.313726 1
1 0.498039 0.313726 1
1 0.498039 0.313726 1
1 0.498039 0.313726 1
1 0.498039 0.313726 1
1 0.498039 0.313726 1
1 0.498039 0.313726 1
1 0.498039 0.313726 1
1 0.498039 0.313726 1
1 0.498039 0.313726 1
1 0.498039 0.313726 1
1 0.498039 0.313726 1
1 0.498039 0.313726 1
1 0.498039 0.313726 1
1 0.498039 0.313726 1
1 0.498039 0.313726 1
1 0.498039 0.313726 1
1 0.498039 0.313726 1
1 0.498039 0.313726 1
1 0.498039 0.313726 1
1 0.498039 0.313726 1
1 0.498039 0.313726 1
1 0.498039 0.313726 1
1 0.498039 0.313726 1
1 0.498039 0.313726 1
1 0.498039 0.313726 1
1 0.498039 0.313726 1
1 0.498039 0.313726 1
1 0.498039 0.313726 1
1 0.498039 0.313726 1
1 0.498039 0.313726 1
1 0.498039 0.313726 1
1 0.498039 0.313726 1
1 0.498039 0.313726 1
1 0.498039 0.313726 1
1 0.498039 0.313726 1
1 0.498039 0.313726 1
1 0.498039 0.313726 1
1 0.498039 0.313726 1
1 0.498039 0.313726 1
1 0.498039 0.313726 1
1 0.498039 0.313726 1
1 0.498039 0.313726 1
1 0.498039 0.313726 1
1 0.498039 0.313726 1
1 0.498039 0.313726 1
1 0.498039 0.313726 1
1 0.498039 0.313726 1
1 0.498039 0.313726 1
1 0.498039 0.313726 1
1 0.498039 0.313726 1
1 0.498039 0.313726 1
1 0.498039 0.313726 1
1 0.498039 0.313726 1
1 0.498039 0.313726 1
1 0.498039 0.313726 1
1 0.498039 0.313726 1
1 0.498039 0.313726 1
1 0.498039 0.313726 1
1 0.498039 0.313726 1
1 0.498039 0.313726 1
1 0.498039 0.313726 1
1 0.498039 0.313726 1
1 0.498039 0.313726 1
1 0.498039 0.313726 1
1 0.498039 0.313726 1
1 0.498039 0.313726 1
1 0.498039 0.313726 1
1 0.498039 0.313726 1
1 0.498039 0.313726 1
1 0.498039 0.313726 1
1 0.498039 0.313726 1
1 0.498039 0.313726 1
1 0.498039 0.313726 1
1 0.498039 0.313726 1
1 0.498039 0.313726 1
1 0.498039 0.313726 1
1 0.498039 0.313726 1
1 0.498039 0.313726 1
1 0.498039 0.313726 1
1 0.498039 0.313726 1
1 0.498039 0.313726 1
1 0.498039 0.313726 1
1 0.498039 0.313726 1
1 0.498039 0.313726 1
1 0.498039 0.313726 1
1 0.498039 0.313726 1
1 0.498039 0.313726 1
1 0.498039 0.313726 1
1 0.498039 0.313726 1
1 0.498039 0.313726 1
1 0.498039 0.313726 1
1 0.498039 0.313726 1
1 0.498039 0.313726 1
1 0.498039 0.313726 1
1 0.498039 0.313726 1
1 0.498039 0.313726 1
1 0.498039 0.313726 1
1 0.498039 0.313726 1
1 0.498039 0.313726 1
1 0.498039 0.313726 1
1 0.498039 0.313726 1
1 0.498039 0.313726 1
1 0.498039 0.313726 1
1 0.498039 0.313726 1
1 0.498039 0.313726 1
1 0.498039 0.313726 1
1 0.498039 0.313726 1
1 0.498039 0.313726 1
1 0.498039 0.313726 1
1 0.498039 0.313726 1
1 0.498039 0.313726 1
1 0.498039 0.313726 1
1 0.498039 0.313726 1
1 0.498039 0.313726 1
1 0.498039 0.313726 1
1 0.498039 0.313726 1
1 0.498039 0.313726 1
1 0.498039 0.313726 1
1 0.498039 0.313726 1
1 0.498039 0.313726 1
1 0.498039 0.313726 1
1 0.498039 0.313726 1
1 0.498039 0.313726 1
1 0.498039 0.313726 1
1 0.498039 0.313726 1
1 0.498039 0.313726 1
1 0.498039 0.313726 1
1 0.498039 0.313726 1
1 0.498039 0.313726 1
1 0.498039 0.313726 1
1 0.498039 0.313726 1
1 0.498039 0.313726 1
1 0.498039 0.313726 1
1 0.498039 0.313726 1
1 0.498039 0.313726 1
1 0.498039 0.313726 1
1 0.498039 0.313726 1
1 0.498039 0.313726 1
1 0.498039 0.313726 1
1 0.498039 0.313726 1
1 0.498039 0.313726 1
1 0.498039 0.313726 1
1 0.498039 0.313726 1
1 0.498039 0.313726 1
1 0.498039 0.313726 1
1 0.498039 0.313726 1
1 0.498039 0.313726 1
1 0.498039 0.313726 1
1 0.498039 0.313726 1
1 0.498039 0.313726 1
1 0.498039 0.313726 1
1 0.498039 0.313726 1
1 0.498039 0.313726 1
1 0.498039 0.313726 1
1 0.498039 0.313726 1
1 0.498039 0.313726 1
1 0.498039 0.313726 1
1 0.498039 0.313726 1
1 0.498039 0.313726 1
1 0.498039 0.313726 1
1 0.498039 0.313726 1
1 0.498039 0.313726 1
1 0.498039 0.313726 1
1 0.498039 0.313726 1
1 0.498039 0.313726 1
1 0.498039 0.313726 1
1 0.498039 0.313726 1
1 0.498039 0.313726 1
1 0.498039 0.313726 1
1 0.498039 0.313726 1
1 0.498039 0.313726 1
1 0.498039 0.313726 1
1 0.498039 0.313726 1
1 0.498039 0.313726 1
1 0.498039 0.313726 1
1 0.498039 0.313726 1
1 0.498039 0.313726 1
1 0.498039 0.313726 1
1 0.498039 0.313726 1
1 0.498039 0.313726 1
1 0.498039 0.313726 1
1 0.498039 0.313726 1
1 0.498039 0.313726 1
1 0.498039 0.313726 1
1 0.498039 0.313726 1
1 0.498039 0.313726 1
1 0.498039 0.313726 1
1 0.498039 0.313726 1
1 0.498039 0.313726 1
1 0.498039 0.313726 1
1 0.498039 0.313726 1
1 0.498039 0.313726 1
1 0.498039 0.313726 1
1 0.498039 0.313726 1
1 0.498039 0.313726 1
1 0.498039 0.313726 1
1 0.498039 0.313726 1
1 0.498039 0.313726 1
1 0.498039 0.313726 1
1 0.498039 0.313726 1
1 0.498039 0.313726 1
1 0.498039 0.313726 1
1 0.498039 0.313726 1
1 0.498039 0.313726 1
1 0.498039 0.313726 1
1 0.498039 0.313726 1
1 0.498039 0.313726 1
1 0.498039 0.313726 1
1 0.498039 0.313726 1
1 0.498039 0.313726 1
1 0.498039 0.313726 1
1 0.498039 0.313726 1
1 0.498039 0.313726 1
1 0.498039 0.313726 1
1 0.498039 0.313726 1
1 0.498039 0.313726 1
1 0.498039 0.313726 1
1 0.498039 0.313726 1
1 0.498039 0.313726 1
1 0.498039 0.313726 1
1 0.498039 0.313726 1
1 0.498039 0.313726 1
1 0.498039 0.313726 1
1 0.498039 0.313726 1
1 0.498039 0.313726 1
1 0.498039 0.313726 1
1 0.498039 0.313726 1
1 0.498039 0.313726 1
1 0.498039 0.313726 1
1 0.498039 0.313726 1
1 0.498039 0.313726 1
1 0.498039 0.313726 1
1 0.498039 0.313726 1
1 0.498039 0.313726 1
1 0.498039 0.313726 1
1 0.498039 0.313726 1
1 0.498039 0.313726 1
1 0.498039 0.313726 1
1 0.498039 0.313726 1
1 0.498039 0.313726 1
1 0.498039 0.313726 1
1 0.498039 0.313726 1
1 0.498039 0.313726 1
1 0.498039 0.313726 1
1 0.498039 0.313726 1
1 0.498039 0.313726 1
1 0.498039 0.313726 1
1 0.498039 0.313726 1
1 0.498039 0.313726 1
1 0.498039 0.313726 1
1 0.498039 0.313726 1
1 0.498039 0.313726 1
1 0.498039 0.313726 1
1 0.498039 0.313726 1
1 0.498039 0.313726 1
1 0.498039 0.313726 1
1 0.498039 0.313726 1
1 0.498039 0.313726 1
1 0.498039 0.313726 1
1 0.498039 0.313726 1
1 0.498039 0.313726 1
1 0.498039 0.313726 1
1 0.498039 0.313726 1
1 0.498039 0.313726 1
1 0.498039 0.313726 1
1 0.498039 0.313726 1
1 0.498039 0.313726 1
1 0.498039 0.313726 1
1 0.498039 0.313726 1
1 0.498039 0.313726 1
1 0.498039 0.313726 1
1 0.498039 0.313726 1
1 0.498039 0.313726 1
1 0.498039 0.313726 1
1 0.498039 0.313726 1
1 0.498039 0.313726 1
1 0.498039 0.313726 1
1 0.498039 0.313726 1
1 0.498039 0.313726 1
1 0.498039 0.313726 1
1 0.498039 0.313726 1
1 0.498039 0.313726 1
1 0.498039 0.313726 1
1 0.498039 0.313726 1
1 0.498039 0.313726 1
1 0.498039 0.313726 1
1 0.498039 0.313726 1
1 0.498039 0.313726 1
1 0.498039 0.313726 1
1 0.498039 0.313726 1
1 0.498039 0.313726 1
1 0.498039 0.313726 1
1 0.498039 0.313726 1
1 0.498039 0.313726 1
1 0.498039 0.313726 1
1 0.498039 0.313726 1
1 0.498039 0.313726 1
1 0.498039 0.313726 1
1 0.498039 0.313726 1
1 0.498039 0.313726 1
1 0.498039 0.313726 1
1 0.498039 0.313726 1
1 0.498039 0.313726 1
1 0.498039 0.313726 1
1 0.498039 0.313726 1
1 0.498039 0.313726 1
1 0.498039 0.313726 1
1 0.498039 0.313726 1
1 0.498039 0.313726 1
1 0.498039 0.313726 1
1 0.498039 0.313726 1
1 0.498039 0.313726 1
1 0.498039 0.313726 1
1 0.498039 0.313726 1
1 0.498039 0.313726 1
1 0.498039 0.313726 1
1 0.498039 0.313726 1
1 0.498039 0.313726 1
1 0.498039 0.313726 1
1 0.498039 0.313726 1
1 0.498039 0.313726 1
1 0.498039 0.313726 1
1 0.498039 0.313726 1
1 0.498039 0.313726 1
1 0.498039 0.313726 1
1 0.498039 0.313726 1
1 0.498039 0.313726 1
1 0.498039 0.313726 1
1 0.498039 0.313726 1
1 0.498039 0.313726 1
1 0.498039 0.313726 1
1 0.498039 0.313726 1
1 0.498039 0.313726 1
1 0.498039 0.313726 1
1 0.498039 0.313726 1
1 0.498039 0.313726 1
1 0.498039 0.313726 1
1 0.498039 0.313726 1
1 0.498039 0.313726 1
1 0.498039 0.313726 1
1 0.498039 0.313726 1
1 0.498039 0.313726 1
1 0.498039 0.313726 1
1 0.498039 0.313726 1
1 0.498039 0.313726 1
1 0.498039 0.313726 1
1 0.498039 0.313726 1
1 0.498039 0.313726 1
1 0.498039 0.313726 1
1 0.498039 0.313726 1
1 0.498039 0.313726 1
1 0.498039 0.313726 1
1 0.498039 0.313726 1
1 0.498039 0.313726 1
1 0.498039 0.313726 1
1 0.498039 0.313726 1
1 0.498039 0.313726 1
1 0.498039 0.313726 1
1 0.498039 0.313726 1
1 0.498039 0.313726 1
1 0.498039 0.313726 1
1 0.498039 0.313726 1
1 0.498039 0.313726 1
1 0.498039 0.313726 1
1 0.498039 0.313726 1
1 0.498039 0.313726 1
1 0.498039 0.313726 1
1 0.498039 0.313726 1
1 0.498039 0.313726 1
1 0.498039 0.313726 1
1 0.498039 0.313726 1
1 0.498039 0.313726 1
1 0.498039 0.313726 1
1 0.498039 0.313726 1
1 0.498039 0.313726 1
1 0.498039 0.313726 1
1 0.498039 0.313726 1
1 0.498039 0.313726 1
1 0.498039 0.313726 1
1 0.498039 0.313726 1
1 0.498039 0.313726 1
1 0.498039 0.313726 1
1 0.498039 0.313726 1
1 0.498039 0.313726 1
1 0.498039 0.313726 1
1 0.498039 0.313726 1
1 0.498039 0.313726 1
1 0.498039 0.313726 1
1 0.498039 0.313726 1
1 0.498039 0.313726 1
1 0.498039 0.313726 1
1 0.498039 0.313726 1
1 0.498039 0.313726 1
1 0.498039 0.313726 1
1 0.498039 0.313726 1
1 0.498039 0.313726 1
1 0.498039 0.313726 1
1 0.498039 0.313726 1
1 0.498039 0.313726 1
1 0.498039 0.313726 1
1 0.498039 0.313726 1
1 0.498039 0.313726 1
1 0.498039 0.313726 1
1 0.498039 0.313726 1
1 0.498039 0.313726 1
1 0.498039 0.313726 1
1 0.498039 0.313726 1
1 0.498039 0.313726 1
1 0.498039 0.313726 1
1 0.498039 0.313726 1
1 0.498039 0.313726 1
1 0.498039 0.313726 1
1 0.498039 0.313726 1
1 0.498039 0.313726 1
1 0.498039 0.313726 1
1 0.498039 0.313726 1
1 0.498039 0.313726 1
1 0.498039 0.313726 1
1 0.498039 0.313726 1
1 0.498039 0.313726 1
1 0.498039 0.313726 1
1 0.498039 0.313726 1
1 0.498039 0.313726 1
1 0.498039 0.313726 1
1 0.498039 0.313726 1
1 0.498039 0.313726 1
1 0.498039 0.313726 1
1 0.498039 0.313726 1
1 0.498039 0.313726 1
1 0.498039 0.313726 1
1 0.498039 0.313726 1
1 0.498039 0.313726 1
1 0.498039 0.313726 1
1 0.498039 0.313726 1
1 0.498039 0.313726 1
1 0.498039 0.313726 1
1 0.498039 0.313726 1
1 0.498039 0.313726 1
1 0.498039 0.313726 1
1 0.498039 0.313726 1
1 0.498039 0.313726 1
1 0.498039 0.313726 1
1 0.498039 0.313726 1
1 0.498039 0.313726 1
1 0.498039 0.313726 1
1 0.498039 0.313726 1
1 0.498039 0.313726 1
1 0.498039 0.313726 1
1 0.498039 0.313726 1
1 0.498039 0.313726 1
1 0.498039 0.313726 1
1 0.498039 0.313726 1
1 0.498039 0.313726 1
1 0.498039 0.313726 1
1 0.498039 0.313726 1
1 0.498039 0.313726 1
1 0.498039 0.313726 1
1 0.498039 0.313726 1
1 0.498039 0.313726 1
1 0.498039 0.313726 1
1 0.498039 0.313726 1
1 0.498039 0.313726 1
1 0.498039 0.313726 1
1 0.498039 0.313726 1
1 0.498039 0.313726 1
1 0.498039 0.313726 1
1 0.498039 0.313726 1
1 0.498039 0.313726 1
1 0.498039 0.313726 1
1 0.498039 0.313726 1
1 0.498039 0.313726 1
1 0.498039 0.313726 1
1 0.498039 0.313726 1
1 0.498039 0.313726 1
1 0.498039 0.313726 1
1 0.498039 0.313726 1
1 0.498039 0.313726 1
1 0.498039 0.313726 1
1 0.498039 0.313726 1
1 0.498039 0.313726 1
1 0.498039 0.313726 1
1 0.498039 0.313726 1
1 0.498039 0.313726 1
1 0.498039 0.313726 1
1 0.498039 0.313726 1
1 0.498039 0.313726 1
1 0.498039 0.313726 1
1 0.498039 0.313726 1
1 0.498039 0.313726 1
1 0.498039 0.313726 1
1 0.498039 0.313726 1
1 0.498039 0.313726 1
1 0.498039 0.313726 1
1 0.498039 0.313726 1
1 0.498039 0.313726 1
1 0.498039 0.313726 1
1 0.498039 0.313726 1
1 0.498039 0.313726 1
1 0.498039 0.313726 1
1 0.498039 0.313726 1
1 0.498039 0.313726 1
1 0.498039 0.313726 1
1 0.498039 0.313726 1
1 0.498039 0.313726 1
1 0.498039 0.313726 1
1 0.498039 0.313726 1
1 0.498039 0.313726 1
1 0.498039 0.313726 1
1 0.498039 0.313726 1
1 0.498039 0.313726 1
1 0.498039 0.313726 1
1 0.498039 0.313726 1
1 0.498039 0.313726 1
1 0.498039 0.313726 1
1 0.498039 0.313726 1
1 0.498039 0.313726 1
1 0.498039 0.313726 1
1 0.498039 0.313726 1
1 0.498039 0.313726 1
1 0.498039 0.313726 1
1 0.498039 0.313726 1
1 0.498039 0.313726 1
1 0.498039 0.313726 1
1 0.498039 0.313726 1
1 0.498039 0.313726 1
1 0.498039 0.313726 1
1 0.498039 0.313726 1
1 0.498039 0.313726 1
1 0.498039 0.313726 1
1 0.498039 0.313726 1
1 0.498039 0.313726 1
1 0.498039 0.313726 1
1 0.498039 0.313726 1
1 0.498039 0.313726 1
1 0.498039 0.313726 1
1 0.498039 0.313726 1
1 0.498039 0.313726 1
1 0.498039 0.313726 1
1 0.498039 0.313726 1
1 0.498039 0.313726 1
1 0.498039 0.313726 1
1 0.498039 0.313726 1
1 0.498039 0.313726 1
1 0.498039 0.313726 1
1 0.498039 0.313726 1
1 0.498039 0.313726 1
1 0.498039 0.313726 1
1 0.498039 0.313726 1
1 0.498039 0.313726 1
1 0.498039 0.313726 1
1 0.498039 0.313726 1
1 0.498039 0.313726 1
1 0.498039 0.313726 1
1 0.498039 0.313726 1
1 0.498039 0.313726 1
1 0.498039 0.313726 1
1 0.498039 0.313726 1
1 0.498039 0.313726 1
1 0.498039 0.313726 1
1 0.498039 0.313726 1
1 0.498039 0.313726 1
1 0.498039 0.313726 1
1 0.498039 0.313726 1
1 0.498039 0.313726 1
1 0.498039 0.313726 1
1 0.498039 0.313726 1
1 0.498039 0.313726 1
1 0.498039 0.313726 1
1 0.498039 0.313726 1
1 0.498039 0.313726 1
1 0.498039 0.313726 1
1 0.498039 0.313726 1
1 0.498039 0.313726 1
1 0.498039 0.313726 1
1 0.498039 0.313726 1
1 0.498039 0.313726 1
1 0.498039 0.313726 1
1 0.498039 0.313726 1
1 0.498039 0.313726 1
1 0.498039 0.313726 1
1 0.498039 0.313726 1
1 0.498039 0.313726 1
1 0.498039 0.313726 1
1 0.498039 0.313726 1
1 0.498039 0.313726 1
1 0.498039 0.313726 1
1 0.498039 0.313726 1
1 0.498039 0.313726 1
1 0.498039 0.313726 1
1 0.498039 0.313726 1
1 0.498039 0.313726 1
1 0.498039 0.313726 1
1 0.498039 0.313726 1
1 0.498039 0.313726 1
1 0.498039 0.313726 1
1 0.498039 0.313726 1
1 0.498039 0.313726 1
1 0.498039 0.313726 1
1 0.498039 0.313726 1
1 0.498039 0.313726 1
1 0.498039 0.313726 1
1 0.498039 0.313726 1
1 0.498039 0.313726 1
1 0.498039 0.313726 1
1 0.498039 0.313726 1
1 0.498039 0.313726 1
1 0.498039 0.313726 1
1 0.498039 0.313726 1
1 0.498039 0.313726 1
1 0.498039 0.313726 1
1 0.498039 0.313726 1
1 0.498039 0.313726 1
1 0.498039 0.313726 1
1 0.498039 0.313726 1
1 0.498039 0.313726 1
1 0.498039 0.313726 1
1 0.498039 0.313726 1
1 0.498039 0.313726 1
1 0.498039 0.313726 1
1 0.498039 0.313726 1
1 0.498039 0.313726 1
1 0.498039 0.313726 1
1 0.498039 0.313726 1
1 0.498039 0.313726 1
1 0.498039 0.313726 1
1 0.498039 0.313726 1
1 0.498039 0.313726 1
1 0.498039 0.313726 1
1 0.498039 0.313726 1
1 0.498039 0.313726 1
1 0.498039 0.313726 1
1 0.498039 0.313726 1
1 0.498039 0.313726 1
1 0.498039 0.313726 1
1 0.498039 0.313726 1
1 0.498039 0.313726 1
1 0.498039 0.313726 1

