# vtk DataFile Version 3.0
Gocad TSurf to VTK
ASCII
DATASET POLYDATA
POINTS 172 float
21568175.000 4557240.000 -665.000
21568250.000 4557420.000 -565.000
21568450.000 4557310.000 -647.500
21568625.000 4557435.000 -588.750
21568100.000 4557060.000 -765.000
21567850.000 4557402.500 -515.000
21567350.000 4558087.500 -15.000
21566800.000 4558150.000 265.000
21568400.000 4557780.000 -365.000
21567100.000 4558430.000 235.000
21566950.000 4558290.000 250.000
21568225.000 4558052.500 -176.250
21567250.000 4558540.000 273.750
21568550.000 4557995.000 -230.000
21568725.000 4558047.500 -203.750
21568625.000 4558102.500 -162.500
21567875.000 4558597.500 201.250
21568700.000 4558210.000 -95.000
21569400.000 4557770.000 -405.000
21567709.938 4558854.531 379.284
21567602.203 4558798.277 364.734
21567719.594 4558857.066 380.497
21567550.000 4558760.000 351.250
21567400.000 4558650.000 312.500
21569100.000 4557665.000 -467.500
21569325.000 4557677.500 -450.000
21568775.000 4557722.500 -421.250
21568950.000 4557612.500 -498.750
21569250.000 4557585.000 -495.000
21569075.000 4557212.500 -665.000
21569375.000 4557077.500 -665.000
21568700.000 4557195.000 -705.000
21568850.000 4557115.000 -732.500
21569250.000 4556935.000 -745.000
21568600.000 4556830.000 -880.000
21568975.000 4556485.000 -870.000
21568250.000 4556452.500 -671.250
21567925.000 4556962.500 -643.750
21568450.000 4556540.000 -760.000
21568650.000 4556450.000 -772.500
21568375.000 4556395.000 -700.000
21568300.000 4556250.000 -640.000
21567575.000 4556767.500 -401.250
21567425.000 4556580.000 -231.250
21567900.000 4556280.000 -362.500
21567175.000 4556970.000 -136.250
21566000.000 4557270.000 320.000
21566725.000 4557570.000 151.250
21566250.000 4557570.000 307.500
21566500.000 4557870.000 295.000
21566375.000 4557720.000 301.250
21566650.000 4558010.000 280.000
21566125.000 4557420.000 313.750
21566250.000 4557072.500 267.500
21567100.000 4556527.500 12.500
21566000.000 4557155.000 320.000
21566000.000 4557040.000 320.000
21566000.000 4556925.000 320.000
21566000.000 4556810.000 320.000
21566125.000 4556600.000 323.750
21566875.000 4556352.500 166.250
21567500.000 4556310.000 -85.000
21566250.000 4556390.000 327.500
21566375.000 4556180.000 331.250
21566625.000 4556097.500 278.750
21566500.000 4555970.000 335.000
21567800.000 4555630.000 -95.000
21567575.000 4555552.500 40.000
21568025.000 4555202.500 -35.000
21566600.000 4555807.500 362.500
21566700.000 4555645.000 390.000
21566787.078 4555503.500 413.946
21566804.641 4555482.918 415.243
21566933.703 4555331.609 424.781
21568100.000 4555060.000 -15.000
21566956.531 4555307.754 423.331
21566936.547 4555327.539 425.020
21568200.000 4555152.500 -91.250
21568300.000 4555245.000 -167.500
21568200.000 4555060.000 -15.000
21568800.000 4555047.500 -290.000
21568800.000 4555630.000 -440.000
21568900.000 4554920.000 -280.000
21569000.000 4554995.000 -266.250
21569100.000 4555070.000 -252.500
21569100.000 4554860.000 -320.000
21569150.000 4554950.000 -296.250
21569300.000 4554830.000 -280.000
21569300.000 4554927.500 -266.250
21569200.000 4555040.000 -272.500
21569450.000 4554890.000 -172.500
21569400.000 4555000.000 -190.000
21569500.000 4554780.000 -155.000
21569300.000 4555025.000 -252.500
21569350.000 4555110.000 -207.500
21569300.000 4555122.500 -238.750
21569300.000 4555220.000 -225.000
21569100.000 4555515.000 -405.000
21569325.000 4555332.500 -283.750
21569250.000 4555592.500 -432.500
21569375.000 4555315.000 -252.500
21569450.000 4555410.000 -280.000
21569525.000 4555505.000 -307.500
21569600.000 4555600.000 -335.000
21569600.000 4555622.500 -415.000
21569600.000 4555690.000 -655.000
21569700.000 4555577.500 -321.250
21569800.000 4555555.000 -307.500
21569750.000 4555557.500 -282.500
21569900.000 4555515.000 -230.000
21569900.000 4555532.500 -293.750
21570050.000 4555472.500 -177.500
21569925.000 4555705.000 -360.000
21570075.000 4555640.000 -227.500
21569650.000 4555990.000 -627.500
21569325.000 4555960.000 -723.750
21569850.000 4555900.000 -440.000
21569775.000 4556095.000 -520.000
21570150.000 4555770.000 -175.000
21570225.000 4555900.000 -122.500
21570250.000 4555730.000 -97.500
21570300.000 4556030.000 -70.000
21570425.000 4555797.500 73.750
21569700.000 4556290.000 -600.000
21569675.000 4556140.000 -613.750
21570275.000 4556235.000 -150.000
21569950.000 4556570.000 -495.000
21570425.000 4556152.500 7.500
21570350.000 4556385.000 -125.000
21570500.000 4555920.000 140.000
21570250.000 4556440.000 -230.000
21570275.000 4556617.500 -257.500
21570225.000 4556645.000 -310.000
21570075.000 4556710.000 -442.500
21570200.000 4556850.000 -390.000
21569925.000 4556785.000 -506.250
21570100.000 4557005.000 -426.250
21569850.000 4557240.000 -500.000
21570250.000 4556930.000 -362.500
21570200.000 4557060.000 -377.500
21570275.000 4556915.000 -351.250
21570300.000 4557010.000 -335.000
21570350.000 4556980.000 -312.500
21570350.000 4557090.000 -307.500
21570400.000 4557170.000 -280.000
21570425.000 4557045.000 -273.750
21570500.000 4557110.000 -235.000
21570000.000 4557390.000 -420.000
21570000.000 4557280.000 -441.250
21570000.000 4557390.000 -430.000
21569925.000 4557315.000 -465.000
21570000.000 4557170.000 -452.500
21569775.000 4557412.500 -476.250
21569750.000 4557305.000 -507.500
21569800.000 4557520.000 -445.000
21569575.000 4557295.000 -550.000
21569425.000 4557632.500 -450.000
21569600.000 4556942.500 -643.750
21569400.000 4556860.000 -725.000
21569350.000 4556680.000 -795.000
21569700.000 4556490.000 -592.500
21569300.000 4556500.000 -865.000
21568925.000 4556155.000 -800.000
21569450.000 4556070.000 -682.500
21568925.000 4555942.500 -713.750
21569000.000 4555800.000 -560.000
21568525.000 4556020.000 -506.250
21568100.000 4555830.000 -257.500
21570350.000 4555675.000 7.500
21570275.000 4555552.500 -58.750
21570225.000 4555580.000 -111.250
21570200.000 4555430.000 -125.000

POLYGONS 276 1104
3 39 38 34
3 34 4 2
3 32 31 29
3 148 147 139
3 39 162 164
3 120 168 169
3 138 136 139
3 41 40 39
3 34 36 4
3 150 149 148
3 16 17 15
3 103 106 108
3 133 134 132
3 125 123 126
3 85 82 83
3 70 69 67
3 138 141 140
3 104 103 99
3 136 134 135
3 27 24 28
3 24 26 14
3 165 164 115
3 29 31 3
3 73 72 67
3 159 161 35
3 96 84 97
3 165 115 99
3 49 4 47
3 136 135 137
3 166 41 164
3 162 39 35
3 16 20 19
3 35 39 34
3 97 80 81
3 79 74 77
3 55 46 53
3 156 154 155
3 14 18 24
3 91 93 94
3 51 7 5
3 155 30 28
3 141 143 142
3 154 152 155
3 48 50 47
3 159 33 158
3 46 45 43
3 59 58 54
3 158 33 30
3 85 83 86
3 26 27 3
3 74 68 77
3 45 42 43
3 154 149 152
3 117 121 119
3 64 63 60
3 116 119 118
3 9 12 11
3 116 114 117
3 141 142 140
3 171 170 169
3 123 160 126
3 124 114 163
3 15 17 14
3 147 144 139
3 34 2 32
3 96 95 84
3 126 133 132
3 48 47 45
3 66 65 64
3 143 144 145
3 134 133 135
3 29 3 28
3 115 163 114
3 80 78 81
3 113 171 110
3 73 67 74
3 47 4 37
3 121 122 119
3 171 111 110
3 31 2 3
3 21 17 19
3 130 126 132
3 170 120 169
3 107 106 104
3 32 29 33
3 155 153 137
3 52 48 45
3 137 151 136
3 164 162 115
3 57 53 54
3 135 160 157
3 93 89 95
3 6 8 1
3 151 148 136
3 60 59 54
3 62 59 60
3 130 125 126
3 65 63 64
3 159 158 157
3 96 98 100
3 171 113 170
3 11 13 8
3 143 145 142
3 120 118 119
3 40 38 39
3 107 104 105
3 149 147 148
3 125 130 128
3 54 53 43
3 8 3 1
3 138 139 141
3 42 41 43
3 124 123 117
3 86 84 89
3 87 85 86
3 103 102 99
3 12 23 11
3 162 35 161
3 95 96 94
3 112 118 113
3 41 44 43
3 57 56 53
3 8 26 3
3 42 37 36
3 25 28 24
3 106 107 108
3 153 150 137
3 3 2 1
3 68 74 67
3 117 119 116
3 134 136 138
3 98 96 97
3 93 91 88
3 36 37 4
3 134 138 140
3 7 10 6
3 152 150 153
3 84 83 80
3 61 167 66
3 135 133 126
3 90 87 88
3 41 39 164
3 68 67 66
3 132 134 131
3 9 8 6
3 121 123 125
3 76 73 75
3 30 29 28
3 64 60 61
3 107 110 109
3 32 33 35
3 98 101 100
3 166 164 81
3 41 42 36
3 110 111 109
3 17 18 14
3 4 0 2
3 129 121 127
3 56 55 53
3 5 1 0
3 122 168 119
3 61 43 44
3 15 13 11
3 144 146 145
3 135 126 160
3 69 65 67
3 68 78 77
3 151 137 150
3 160 159 157
3 73 74 75
3 16 15 11
3 130 132 131
3 58 57 54
3 66 64 61
3 135 157 137
3 16 22 20
3 41 36 40
3 80 79 78
3 97 99 98
3 121 125 127
3 159 160 161
3 29 30 33
3 50 49 47
3 53 46 43
3 63 62 60
3 93 88 89
3 152 153 155
3 44 41 166
3 92 87 90
3 114 124 117
3 110 107 105
3 28 156 155
3 164 165 81
3 160 123 161
3 123 121 117
3 102 98 99
3 144 143 139
3 78 66 167
3 95 89 84
3 17 16 19
3 103 104 106
3 18 25 24
3 83 82 80
3 79 77 78
3 78 167 81
3 139 136 148
3 18 154 156
3 157 30 155
3 123 163 161
3 36 38 40
3 170 118 120
3 61 54 43
3 161 163 115
3 143 141 139
3 0 1 2
3 23 22 16
3 25 18 156
3 99 97 165
3 116 112 114
3 88 86 89
3 170 113 118
3 167 44 166
3 49 51 5
3 72 71 67
3 60 54 61
3 13 15 14
3 14 26 8
3 38 36 34
3 157 158 30
3 4 49 5
3 86 83 84
3 162 161 115
3 116 118 112
3 128 130 131
3 127 125 128
3 168 120 119
3 81 167 166
3 33 159 35
3 23 16 11
3 46 52 45
3 82 79 80
3 112 113 110
3 2 31 32
3 10 9 6
3 107 109 108
3 112 105 114
3 91 90 88
3 71 70 67
3 13 14 8
3 95 94 93
3 105 115 114
3 28 25 156
3 121 129 122
3 4 5 0
3 157 155 137
3 84 80 97
3 165 97 81
3 167 61 44
3 3 27 28
3 7 6 5
3 34 32 35
3 6 1 5
3 151 150 148
3 105 112 110
3 26 24 27
3 47 37 45
3 78 68 66
3 105 104 99
3 65 66 67
3 123 124 163
3 102 101 98
3 87 86 88
3 152 149 150
3 8 9 11
3 37 42 45
3 115 105 99

POINT_DATA 172
COLOR_SCALARS GocadColor 4
0.819608 0.698116 0.549615 1
0.819608 0.698116 0.549615 1
0.819608 0.698116 0.549615 1
0.819608 0.698116 0.549615 1
0.819608 0.698116 0.549615 1
0.819608 0.698116 0.549615 1
0.819608 0.698116 0.549615 1
0.819608 0.698116 0.549615 1
0.819608 0.698116 0.549615 1
0.819608 0.698116 0.549615 1
0.819608 0.698116 0.549615 1
0.819608 0.698116 0.549615 1
0.819608 0.698116 0.549615 1
0.819608 0.698116 0.549615 1
0.819608 0.698116 0.549615 1
0.819608 0.698116 0.549615 1
0.819608 0.698116 0.549615 1
0.819608 0.698116 0.549615 1
0.819608 0.698116 0.549615 1
0.819608 0.698116 0.549615 1
0.819608 0.698116 0.549615 1
0.819608 0.698116 0.549615 1
0.819608 0.698116 0.549615 1
0.819608 0.698116 0.549615 1
0.819608 0.698116 0.549615 1
0.819608 0.698116 0.549615 1
0.819608 0.698116 0.549615 1
0.819608 0.698116 0.549615 1
0.819608 0.698116 0.549615 1
0.819608 0.698116 0.549615 1
0.819608 0.698116 0.549615 1
0.819608 0.698116 0.549615 1
0.819608 0.698116 0.549615 1
0.819608 0.698116 0.549615 1
0.819608 0.698116 0.549615 1
0.819608 0.698116 0.549615 1
0.819608 0.698116 0.549615 1
0.819608 0.698116 0.549615 1
0.819608 0.698116 0.549615 1
0.819608 0.698116 0.549615 1
0.819608 0.698116 0.549615 1
0.819608 0.698116 0.549615 1
0.819608 0.698116 0.549615 1
0.819608 0.698116 0.549615 1
0.819608 0.698116 0.549615 1
0.819608 0.698116 0.549615 1
0.819608 0.698116 0.549615 1
0.819608 0.698116 0.549615 1
0.819608 0.698116 0.549615 1
0.819608 0.698116 0.549615 1
0.819608 0.698116 0.549615 1
0.819608 0.698116 0.549615 1
0.819608 0.698116 0.549615 1
0.819608 0.698116 0.549615 1
0.819608 0.698116 0.549615 1
0.819608 0.698116 0.549615 1
0.819608 0.698116 0.549615 1
0.819608 0.698116 0.549615 1
0.819608 0.698116 0.549615 1
0.819608 0.698116 0.549615 1
0.819608 0.698116 0.549615 1
0.819608 0.698116 0.549615 1
0.819608 0.698116 0.549615 1
0.819608 0.698116 0.549615 1
0.819608 0.698116 0.549615 1
0.819608 0.698116 0.549615 1
0.819608 0.698116 0.549615 1
0.819608 0.698116 0.549615 1
0.819608 0.698116 0.549615 1
0.819608 0.698116 0.549615 1
0.819608 0.698116 0.549615 1
0.819608 0.698116 0.549615 1
0.819608 0.698116 0.549615 1
0.819608 0.698116 0.549615 1
0.819608 0.698116 0.549615 1
0.819608 0.698116 0.549615 1
0.819608 0.698116 0.549615 1
0.819608 0.698116 0.549615 1
0.819608 0.698116 0.549615 1
0.819608 0.698116 0.549615 1
0.819608 0.698116 0.549615 1
0.819608 0.698116 0.549615 1
0.819608 0.698116 0.549615 1
0.819608 0.698116 0.549615 1
0.819608 0.698116 0.549615 1
0.819608 0.698116 0.549615 1
0.819608 0.698116 0.549615 1
0.819608 0.698116 0.549615 1
0.819608 0.698116 0.549615 1
0.819608 0.698116 0.549615 1
0.819608 0.698116 0.549615 1
0.819608 0.698116 0.549615 1
0.819608 0.698116 0.549615 1
0.819608 0.698116 0.549615 1
0.819608 0.698116 0.549615 1
0.819608 0.698116 0.549615 1
0.819608 0.698116 0.549615 1
0.819608 0.698116 0.549615 1
0.819608 0.698116 0.549615 1
0.819608 0.698116 0.549615 1
0.819608 0.698116 0.549615 1
0.819608 0.698116 0.549615 1
0.819608 0.698116 0.549615 1
0.819608 0.698116 0.549615 1
0.819608 0.698116 0.549615 1
0.819608 0.698116 0.549615 1
0.819608 0.698116 0.549615 1
0.819608 0.698116 0.549615 1
0.819608 0.698116 0.549615 1
0.819608 0.698116 0.549615 1
0.819608 0.698116 0.549615 1
0.819608 0.698116 0.549615 1
0.819608 0.698116 0.549615 1
0.819608 0.698116 0.549615 1
0.819608 0.698116 0.549615 1
0.819608 0.698116 0.549615 1
0.819608 0.698116 0.549615 1
0.819608 0.698116 0.549615 1
0.819608 0.698116 0.549615 1
0.819608 0.698116 0.549615 1
0.819608 0.698116 0.549615 1
0.819608 0.698116 0.549615 1
0.819608 0.698116 0.549615 1
0.819608 0.698116 0.549615 1
0.819608 0.698116 0.549615 1
0.819608 0.698116 0.549615 1
0.819608 0.698116 0.549615 1
0.819608 0.698116 0.549615 1
0.819608 0.698116 0.549615 1
0.819608 0.698116 0.549615 1
0.819608 0.698116 0.549615 1
0.819608 0.698116 0.549615 1
0.819608 0.698116 0.549615 1
0.819608 0.698116 0.549615 1
0.819608 0.698116 0.549615 1
0.819608 0.698116 0.549615 1
0.819608 0.698116 0.549615 1
0.819608 0.698116 0.549615 1
0.819608 0.698116 0.549615 1
0.819608 0.698116 0.549615 1
0.819608 0.698116 0.549615 1
0.819608 0.698116 0.549615 1
0.819608 0.698116 0.549615 1
0.819608 0.698116 0.549615 1
0.819608 0.698116 0.549615 1
0.819608 0.698116 0.549615 1
0.819608 0.698116 0.549615 1
0.819608 0.698116 0.549615 1
0.819608 0.698116 0.549615 1
0.819608 0.698116 0.549615 1
0.819608 0.698116 0.549615 1
0.819608 0.698116 0.549615 1
0.819608 0.698116 0.549615 1
0.819608 0.698116 0.549615 1
0.819608 0.698116 0.549615 1
0.819608 0.698116 0.549615 1
0.819608 0.698116 0.549615 1
0.819608 0.698116 0.549615 1
0.819608 0.698116 0.549615 1
0.819608 0.698116 0.549615 1
0.819608 0.698116 0.549615 1
0.819608 0.698116 0.549615 1
0.819608 0.698116 0.549615 1
0.819608 0.698116 0.549615 1
0.819608 0.698116 0.549615 1
0.819608 0.698116 0.549615 1
0.819608 0.698116 0.549615 1
0.819608 0.698116 0.549615 1
0.819608 0.698116 0.549615 1
0.819608 0.698116 0.549615 1
0.819608 0.698116 0.549615 1
0.819608 0.698116 0.549615 1

