# vtk DataFile Version 3.0
Gocad TSurf to VTK
ASCII
DATASET POLYDATA
POINTS 178 float
21566000.000 4554432.500 -737.500
21566100.000 4554505.000 -790.000
21566200.000 4554445.000 -747.500
21566350.000 4554325.000 -725.000
21565900.000 4554360.000 -685.000
21565900.000 4554515.000 -712.500
21565900.000 4554825.000 -767.500
21565750.000 4554597.500 -712.500
21566300.000 4554650.000 -895.000
21565900.000 4554980.000 -795.000
21565750.000 4554932.500 -711.250
21565700.000 4554790.000 -705.000
21565400.000 4555370.000 -615.000
21565375.000 4555225.000 -576.250
21565600.000 4554885.000 -627.500
21565300.000 4555300.000 -490.000
21565300.000 4555130.000 -480.000
21565300.000 4555470.000 -500.000
21565300.000 4555460.000 -500.000
21565300.000 4555292.500 -490.000
21565300.000 4554957.500 -470.000
21565350.000 4555080.000 -537.500
21565325.000 4554935.000 -498.750
21565450.000 4554837.500 -543.750
21565600.000 4554695.000 -660.000
21565300.000 4554790.000 -460.000
21565500.000 4554600.000 -615.000
21565450.000 4554457.500 -558.750
21565600.000 4554360.000 -611.250
21565225.000 4554640.000 -415.000
21565250.000 4554395.000 -447.500
21565350.000 4554330.000 -490.000
21565150.000 4554490.000 -370.000
21565125.000 4554292.500 -363.750
21565350.000 4554172.500 -446.250
21565075.000 4554340.000 -325.000
21565000.000 4554190.000 -280.000
21565200.000 4554060.000 -365.000
21565100.000 4553967.500 -227.500
21565250.000 4553870.000 -291.250
21565300.000 4554030.000 -390.000
21565200.000 4553745.000 -175.000
21565350.000 4553665.000 -230.000
21565475.000 4553757.500 -340.000
21565300.000 4553522.500 -122.500
21565350.000 4553490.000 -143.750
21565450.000 4553605.000 -250.000
21565400.000 4553300.000 -70.000
21565475.000 4553430.000 -146.250
21565700.000 4553200.000 -125.000
21565550.000 4553560.000 -222.500
21565700.000 4553662.500 -312.500
21565700.000 4553505.000 -250.000
21565850.000 4553440.000 -187.500
21565775.000 4553312.500 -156.250
21565950.000 4553547.500 -218.750
21566000.000 4553380.000 -167.500
21566225.000 4553442.500 -117.500
21566000.000 4553680.000 -250.000
21566000.000 4553230.000 -126.250
21566675.000 4552967.500 147.500
21565800.000 4553150.000 -125.000
21566000.000 4553080.000 -85.000
21565775.000 4552962.500 -90.000
21565925.000 4552910.000 -60.000
21565450.000 4553080.000 -52.500
21565500.000 4552860.000 -35.000
21565650.000 4552810.000 -62.500
21565750.000 4552775.000 -55.000
21565550.000 4552640.000 -17.500
21565725.000 4552587.500 -20.000
21565600.000 4552420.000 0.000
21565700.000 4552400.000 15.000
21565925.000 4552540.000 31.250
21565650.000 4552312.500 21.250
21565750.000 4552305.000 36.250
21565575.000 4552327.500 10.000
21565550.000 4552330.000 10.000
21565550.000 4552235.000 20.000
21565850.000 4552115.000 78.750
21565900.000 4552275.000 77.500
21565525.000 4552142.500 30.000
21565500.000 4552240.000 20.000
21565850.000 4551825.000 106.250
21565550.000 4551650.000 82.500
21566300.000 4552125.000 225.000
21566125.000 4551887.500 201.250
21566800.000 4551930.000 405.000
21565800.000 4551630.000 112.500
21566575.000 4551622.500 403.750
21565700.000 4551240.000 125.000
21565625.000 4551445.000 103.750
21566800.000 4551490.000 505.000
21565975.000 4551252.500 230.000
21566800.000 4551820.000 430.000
21566800.000 4551440.000 515.000
21565650.000 4551095.000 115.000
21566525.000 4551277.500 440.000
21565400.000 4551170.000 55.000
21565425.000 4551042.500 62.500
21565400.000 4551392.500 51.250
21565175.000 4551355.000 51.250
21565400.000 4551615.000 47.500
21565250.000 4551590.000 47.500
21565400.000 4551837.500 43.750
21565325.000 4551825.000 43.750
21565400.000 4552060.000 40.000
21565450.000 4552150.000 30.000
21565100.000 4551120.000 55.000
21565200.000 4551005.000 62.500
21565100.000 4550945.000 31.250
21564950.000 4550875.000 13.750
21565300.000 4550890.000 70.000
21565100.000 4550770.000 7.500
21565450.000 4550915.000 70.000
21565400.000 4550775.000 77.500
21565475.000 4550787.500 77.500
21565500.000 4550660.000 85.000
21565100.000 4550595.000 -16.250
21565100.000 4550420.000 -40.000
21564800.000 4550630.000 -27.500
21564650.000 4550385.000 -68.750
21564500.000 4550140.000 -110.000
21566800.000 4551290.000 545.000
21566800.000 4551340.000 535.000
21566800.000 4551390.000 525.000
21566775.000 4552005.000 391.250
21566725.000 4552155.000 363.750
21566775.000 4552005.000 391.250
21566750.000 4552080.000 377.500
21566700.000 4552230.000 350.000
21566150.000 4552452.500 122.500
21566750.000 4552355.000 332.500
21566800.000 4552480.000 315.000
21566650.000 4552637.500 227.500
21566850.000 4552605.000 297.500
21566900.000 4552730.000 280.000
21567025.000 4552792.500 297.500
21567150.000 4552855.000 315.000
21567275.000 4552917.500 332.500
21567400.000 4552980.000 350.000
21567200.000 4553212.500 186.250
21566150.000 4553737.500 -263.750
21567500.000 4553020.000 360.000
21567600.000 4553060.000 370.000
21566800.000 4553677.500 -141.250
21567700.000 4553100.000 380.000
21567800.000 4553140.000 390.000
21566600.000 4553910.000 -305.000
21566450.000 4553852.500 -291.250
21567650.000 4553355.000 160.000
21566900.000 4553955.000 -417.500
21567875.000 4553162.500 411.250
21567950.000 4553185.000 432.500
21567350.000 4553785.000 -300.000
21567955.266 4553186.578 433.990
21568004.203 4553221.918 432.961
21568006.750 4553223.109 433.375
21568069.594 4553252.504 443.573
21567200.000 4554000.000 -530.000
21568072.250 4553253.746 444.004
21566800.000 4554250.000 -780.000
21566750.000 4554165.000 -661.250
21566650.000 4553995.000 -423.750
21566600.000 4554410.000 -850.000
21566100.000 4554240.000 -600.000
21566075.000 4554100.000 -512.500
21566000.000 4554135.000 -543.750
21565900.000 4554030.000 -487.500
21565800.000 4554247.500 -621.250
21565800.000 4554090.000 -530.000
21565700.000 4554470.000 -685.000
21565700.000 4554135.000 -557.500
21565550.000 4554050.000 -493.750
21565750.000 4553955.000 -452.500
21565500.000 4553910.000 -430.000
21565500.000 4554250.000 -537.500
21565850.000 4552740.000 -35.000

POLYGONS 287 1148
3 62 59 60
3 21 13 14
3 89 94 92
3 175 40 34
3 58 142 141
3 66 65 63
3 75 72 80
3 165 2 3
3 109 112 110
3 112 115 113
3 94 89 87
3 4 5 0
3 155 153 154
3 131 130 80
3 36 37 38
3 85 127 126
3 15 20 19
3 173 28 172
3 16 20 15
3 154 150 151
3 9 8 6
3 138 60 57
3 29 25 27
3 5 1 0
3 71 69 70
3 149 148 145
3 174 168 166
3 24 23 14
3 52 51 55
3 89 92 90
3 133 134 135
3 162 163 3
3 56 59 54
3 170 168 174
3 142 149 145
3 12 13 15
3 96 90 93
3 26 25 23
3 117 115 116
3 98 96 99
3 149 142 166
3 58 51 174
3 167 170 169
3 176 173 34
3 4 171 5
3 72 73 80
3 6 7 11
3 131 73 64
3 176 34 31
3 100 103 102
3 141 144 143
3 53 54 49
3 158 159 160
3 83 79 85
3 44 41 42
3 104 84 102
3 79 80 85
3 177 73 70
3 11 14 10
3 69 66 67
3 52 53 49
3 33 30 34
3 158 157 154
3 165 148 166
3 60 59 57
3 88 86 89
3 46 43 51
3 83 88 84
3 45 44 42
3 172 170 173
3 76 77 71
3 109 110 108
3 171 26 24
3 97 125 124
3 101 98 108
3 171 4 169
3 116 114 96
3 168 167 166
3 165 4 2
3 90 92 93
3 7 24 11
3 105 104 102
3 111 113 120
3 150 148 151
3 109 108 98
3 22 21 23
3 69 67 70
3 40 175 39
3 110 111 108
3 27 26 28
3 99 114 112
3 153 150 154
3 5 7 6
3 87 89 86
3 51 43 174
3 13 12 10
3 164 161 162
3 105 106 104
3 89 90 88
3 84 104 81
3 8 164 3
3 164 162 3
3 40 37 34
3 75 80 79
3 63 64 68
3 96 93 97
3 0 1 2
3 140 58 141
3 67 66 63
3 110 113 111
3 76 78 77
3 57 56 55
3 45 46 48
3 166 148 149
3 38 39 41
3 145 147 146
3 59 56 57
3 43 175 174
3 115 114 116
3 175 43 39
3 99 109 98
3 120 118 121
3 53 52 55
3 41 39 42
3 97 117 96
3 141 142 145
3 140 141 143
3 53 56 54
3 118 117 119
3 112 114 115
3 36 35 33
3 48 50 52
3 16 13 21
3 87 86 85
3 25 22 23
3 134 133 131
3 162 151 163
3 75 74 72
3 121 119 122
3 20 22 25
3 57 140 139
3 159 154 151
3 170 167 168
3 74 76 71
3 113 115 118
3 157 156 154
3 26 23 24
3 126 87 85
3 142 58 166
3 126 127 129
3 84 91 102
3 156 155 154
3 133 132 131
3 95 125 97
3 64 134 131
3 171 7 5
3 48 52 49
3 176 28 173
3 63 62 64
3 147 150 152
3 62 136 134
3 97 123 117
3 86 88 83
3 47 48 49
3 169 172 28
3 130 127 85
3 17 12 15
3 63 68 67
3 65 49 63
3 79 83 81
3 58 57 55
3 146 144 145
3 13 10 14
3 13 16 15
3 58 140 57
3 110 112 113
3 50 46 51
3 12 9 10
3 165 167 169
3 65 47 49
3 114 99 96
3 171 169 28
3 162 161 151
3 71 72 74
3 118 119 121
3 129 128 126
3 148 165 3
3 115 117 118
3 161 159 151
3 52 50 51
3 93 92 95
3 73 72 70
3 43 42 39
3 130 131 132
3 148 163 151
3 4 0 2
3 38 37 39
3 174 175 173
3 104 106 81
3 4 165 169
3 93 95 97
3 21 14 23
3 163 148 3
3 6 8 1
3 24 14 11
3 90 91 88
3 150 153 152
3 32 29 30
3 37 33 34
3 136 60 137
3 148 147 145
3 62 61 59
3 102 91 100
3 30 31 34
3 59 61 54
3 103 100 101
3 86 83 85
3 103 105 102
3 1 5 6
3 113 118 120
3 27 28 176
3 68 64 177
3 67 68 70
3 61 49 54
3 45 48 47
3 25 26 27
3 16 21 20
3 58 174 166
3 48 46 50
3 167 165 166
3 10 9 6
3 91 90 100
3 19 18 15
3 91 84 88
3 27 176 31
3 47 44 45
3 144 141 145
3 75 78 74
3 98 90 96
3 74 78 76
3 90 98 100
3 37 40 39
3 147 148 150
3 31 30 27
3 1 8 3
3 130 85 80
3 61 62 63
3 21 22 20
3 112 109 99
3 100 98 101
3 136 62 60
3 79 81 78
3 32 30 33
3 123 97 124
3 18 17 15
3 170 174 173
3 139 138 57
3 82 81 107
3 60 138 137
3 62 134 64
3 26 171 28
3 11 10 6
3 79 78 75
3 68 177 70
3 73 177 64
3 72 71 70
3 3 2 1
3 83 84 81
3 78 81 82
3 55 56 53
3 30 29 27
3 170 172 169
3 106 107 81
3 42 46 45
3 51 58 55
3 37 36 33
3 73 131 80
3 49 61 63
3 158 154 159
3 42 43 46
3 171 24 7
3 173 175 34
3 117 116 96
3 128 87 126
3 134 136 135
3 35 32 33
3 77 78 82

POINT_DATA 178
COLOR_SCALARS GocadColor 4
1 0.498039 0.313726 1
1 0.498039 0.313726 1
1 0.498039 0.313726 1
1 0.498039 0.313726 1
1 0.498039 0.313726 1
1 0.498039 0.313726 1
1 0.498039 0.313726 1
1 0.498039 0.313726 1
1 0.498039 0.313726 1
1 0.498039 0.313726 1
1 0.498039 0.313726 1
1 0.498039 0.313726 1
1 0.498039 0.313726 1
1 0.498039 0.313726 1
1 0.498039 0.313726 1
1 0.498039 0.313726 1
1 0.498039 0.313726 1
1 0.498039 0.313726 1
1 0.498039 0.313726 1
1 0.498039 0.313726 1
1 0.498039 0.313726 1
1 0.498039 0.313726 1
1 0.498039 0.313726 1
1 0.498039 0.313726 1
1 0.498039 0.313726 1
1 0.498039 0.313726 1
1 0.498039 0.313726 1
1 0.498039 0.313726 1
1 0.498039 0.313726 1
1 0.498039 0.313726 1
1 0.498039 0.313726 1
1 0.498039 0.313726 1
1 0.498039 0.313726 1
1 0.498039 0.313726 1
1 0.498039 0.313726 1
1 0.498039 0.313726 1
1 0.498039 0.313726 1
1 0.498039 0.313726 1
1 0.498039 0.313726 1
1 0.498039 0.313726 1
1 0.498039 0.313726 1
1 0.498039 0.313726 1
1 0.498039 0.313726 1
1 0.498039 0.313726 1
1 0.498039 0.313726 1
1 0.498039 0.313726 1
1 0.498039 0.313726 1
1 0.498039 0.313726 1
1 0.498039 0.313726 1
1 0.498039 0.313726 1
1 0.498039 0.313726 1
1 0.498039 0.313726 1
1 0.498039 0.313726 1
1 0.498039 0.313726 1
1 0.498039 0.313726 1
1 0.498039 0.313726 1
1 0.498039 0.313726 1
1 0.498039 0.313726 1
1 0.498039 0.313726 1
1 0.498039 0.313726 1
1 0.498039 0.313726 1
1 0.498039 0.313726 1
1 0.498039 0.313726 1
1 0.498039 0.313726 1
1 0.498039 0.313726 1
1 0.498039 0.313726 1
1 0.498039 0.313726 1
1 0.498039 0.313726 1
1 0.498039 0.313726 1
1 0.498039 0.313726 1
1 0.498039 0.313726 1
1 0.498039 0.313726 1
1 0.498039 0.313726 1
1 0.498039 0.313726 1
1 0.498039 0.313726 1
1 0.498039 0.313726 1
1 0.498039 0.313726 1
1 0.498039 0.313726 1
1 0.498039 0.313726 1
1 0.498039 0.313726 1
1 0.498039 0.313726 1
1 0.498039 0.313726 1
1 0.498039 0.313726 1
1 0.498039 0.313726 1
1 0.498039 0.313726 1
1 0.498039 0.313726 1
1 0.498039 0.313726 1
1 0.498039 0.313726 1
1 0.498039 0.313726 1
1 0.498039 0.313726 1
1 0.498039 0.313726 1
1 0.498039 0.313726 1
1 0.498039 0.313726 1
1 0.498039 0.313726 1
1 0.498039 0.313726 1
1 0.498039 0.313726 1
1 0.498039 0.313726 1
1 0.498039 0.313726 1
1 0.498039 0.313726 1
1 0.498039 0.313726 1
1 0.498039 0.313726 1
1 0.498039 0.313726 1
1 0.498039 0.313726 1
1 0.498039 0.313726 1
1 0.498039 0.313726 1
1 0.498039 0.313726 1
1 0.498039 0.313726 1
1 0.498039 0.313726 1
1 0.498039 0.313726 1
1 0.498039 0.313726 1
1 0.498039 0.313726 1
1 0.498039 0.313726 1
1 0.498039 0.313726 1
1 0.498039 0.313726 1
1 0.498039 0.313726 1
1 0.498039 0.313726 1
1 0.498039 0.313726 1
1 0.498039 0.313726 1
1 0.498039 0.313726 1
1 0.498039 0.313726 1
1 0.498039 0.313726 1
1 0.498039 0.313726 1
1 0.498039 0.313726 1
1 0.498039 0.313726 1
1 0.498039 0.313726 1
1 0.498039 0.313726 1
1 0.498039 0.313726 1
1 0.498039 0.313726 1
1 0.498039 0.313726 1
1 0.498039 0.313726 1
1 0.498039 0.313726 1
1 0.498039 0.313726 1
1 0.498039 0.313726 1
1 0.498039 0.313726 1
1 0.498039 0.313726 1
1 0.498039 0.313726 1
1 0.498039 0.313726 1
1 0.498039 0.313726 1
1 0.498039 0.313726 1
1 0.498039 0.313726 1
1 0.498039 0.313726 1
1 0.498039 0.313726 1
1 0.498039 0.313726 1
1 0.498039 0.313726 1
1 0.498039 0.313726 1
1 0.498039 0.313726 1
1 0.498039 0.313726 1
1 0.498039 0.313726 1
1 0.498039 0.313726 1
1 0.498039 0.313726 1
1 0.498039 0.313726 1
1 0.498039 0.313726 1
1 0.498039 0.313726 1
1 0.498039 0.313726 1
1 0.498039 0.313726 1
1 0.498039 0.313726 1
1 0.498039 0.313726 1
1 0.498039 0.313726 1
1 0.498039 0.313726 1
1 0.498039 0.313726 1
1 0.498039 0.313726 1
1 0.498039 0.313726 1
1 0.498039 0.313726 1
1 0.498039 0.313726 1
1 0.498039 0.313726 1
1 0.498039 0.313726 1
1 0.498039 0.313726 1
1 0.498039 0.313726 1
1 0.498039 0.313726 1
1 0.498039 0.313726 1
1 0.498039 0.313726 1
1 0.498039 0.313726 1
1 0.498039 0.313726 1
1 0.498039 0.313726 1
1 0.498039 0.313726 1
1 0.498039 0.313726 1
1 0.498039 0.313726 1
1 0.498039 0.313726 1

