# vtk DataFile Version 3.0
Gocad TSurf to VTK
ASCII
DATASET POLYDATA
POINTS 397 float
21608400.000 4570860.000 -735.000
21608225.000 4570950.000 -808.750
21607875.000 4571462.500 -1057.500
21607700.000 4571220.000 -1030.000
21608900.000 4571340.000 -647.500
21607200.000 4570580.000 -1240.000
21607450.000 4570900.000 -1135.000
21607900.000 4570405.000 -912.500
21608400.000 4570690.000 -711.250
21607250.000 4570422.500 -1202.500
21607300.000 4570265.000 -1165.000
21607650.000 4570177.500 -1001.250
21607350.000 4570107.500 -1127.500
21607400.000 4569950.000 -1090.000
21608400.000 4570180.000 -640.000
21608250.000 4569987.500 -703.750
21608575.000 4570065.000 -602.500
21607500.000 4569815.000 -1041.250
21607600.000 4569680.000 -992.500
21607950.000 4569602.500 -831.250
21607700.000 4569545.000 -943.750
21607800.000 4569410.000 -895.000
21609475.000 4569960.000 -293.750
21608650.000 4569150.000 -771.250
21610075.000 4569487.500 -332.500
21607975.000 4569297.500 -887.500
21608150.000 4569185.000 -880.000
21607875.000 4569280.000 -911.250
21607950.000 4569150.000 -927.500
21608025.000 4569020.000 -943.750
21608325.000 4569072.500 -872.500
21608100.000 4568890.000 -960.000
21608500.000 4568960.000 -865.000
21608275.000 4568765.000 -856.250
21608575.000 4568817.500 -785.000
21608775.000 4568880.000 -722.500
21608450.000 4568640.000 -752.500
21608650.000 4568675.000 -705.000
21608625.000 4568515.000 -648.750
21608800.000 4568390.000 -545.000
21609325.000 4568720.000 -437.500
21609800.000 4568832.500 -291.250
21609600.000 4568640.000 -295.000
21610100.000 4568780.000 -140.000
21610175.000 4568937.500 -175.000
21610250.000 4569095.000 -210.000
21610325.000 4569252.500 -245.000
21610400.000 4569410.000 -280.000
21610425.000 4569577.500 -202.500
21610450.000 4569740.000 -125.000
21610425.000 4569575.000 -202.500
21610475.000 4569905.000 -47.500
21610500.000 4570080.000 30.000
21610500.000 4570070.000 30.000
21610525.000 4570222.500 96.250
21610550.000 4570375.000 162.500
21609850.000 4570200.000 -97.500
21610575.000 4570527.500 228.750
21610600.000 4570680.000 295.000
21610050.000 4570725.000 37.500
21610625.000 4570867.500 298.750
21610650.000 4571055.000 302.500
21610675.000 4571242.500 306.250
21608950.000 4570815.000 -477.500
21610700.000 4571430.000 310.000
21610375.000 4571527.500 92.500
21610700.000 4571645.000 257.500
21610700.000 4571860.000 205.000
21610700.000 4572075.000 152.500
21609400.000 4571820.000 -560.000
21610700.000 4572290.000 100.000
21610375.000 4572355.000 -18.750
21609725.000 4572485.000 -256.250
21610700.000 4572477.500 166.250
21610700.000 4572665.000 232.500
21610700.000 4572852.500 298.750
21610700.000 4573040.000 365.000
21609725.000 4572842.500 -148.750
21608800.000 4571975.000 -662.500
21610700.000 4573210.000 406.250
21610050.000 4573135.000 77.500
21608925.000 4572557.500 -505.000
21610700.000 4573380.000 447.500
21610700.000 4573550.000 488.750
21610700.000 4573720.000 530.000
21607475.000 4572747.500 -908.750
21607350.000 4572347.500 -1016.250
21609875.000 4573602.500 160.000
21608225.000 4573367.500 -580.000
21610675.000 4573820.000 506.250
21610650.000 4573920.000 482.500
21610650.000 4573820.000 506.250
21610550.000 4574020.000 458.750
21610600.000 4574120.000 435.000
21607400.000 4573250.000 -950.000
21610500.000 4574120.000 435.000
21610075.000 4574105.000 123.750
21610500.000 4574192.500 420.000
21607675.000 4573452.500 -915.000
21607550.000 4573427.500 -977.500
21609550.000 4574090.000 -187.500
21608000.000 4573960.000 -1060.000
21610525.000 4574337.500 390.000
21610500.000 4574410.000 375.000
21610500.000 4574265.000 405.000
21610500.000 4574337.500 390.000
21610500.000 4574192.500 420.000
21609400.000 4574440.000 -202.500
21610400.000 4574615.000 390.000
21608950.000 4574250.000 -506.250
21608800.000 4575027.500 -546.250
21607925.000 4574417.500 -1082.500
21607600.000 4574200.000 -1235.000
21608000.000 4575130.000 -1005.000
21607675.000 4574702.500 -1152.500
21609100.000 4575180.000 -365.000
21610000.000 4574910.000 212.500
21608825.000 4575327.500 -423.750
21608000.000 4575450.000 -802.500
21609350.000 4575320.000 -168.750
21608000.000 4575770.000 -600.000
21610200.000 4575220.000 445.000
21610125.000 4575610.000 426.250
21610225.000 4575120.000 435.000
21610250.000 4575020.000 425.000
21610275.000 4574920.000 415.000
21610275.000 4574920.000 415.000
21610300.000 4574820.000 405.000
21610350.000 4574717.500 397.500
21610100.000 4575740.000 420.000
21609050.000 4575975.000 -147.500
21607850.000 4575915.000 -722.500
21610100.000 4576070.000 333.750
21610100.000 4576180.000 305.000
21610100.000 4576070.000 333.750
21609100.000 4576605.000 -420.000
21610125.000 4576360.000 207.500
21610175.000 4576720.000 12.500
21610125.000 4576360.000 207.500
21610200.000 4576900.000 -85.000
21609000.000 4577470.000 -670.000
21608100.000 4577230.000 -880.000
21610050.000 4577305.000 -272.500
21609450.000 4577590.000 -565.000
21609975.000 4577507.500 -366.250
21609900.000 4577710.000 -460.000
21608950.000 4577957.500 -908.750
21609925.000 4577830.000 -533.750
21609300.000 4578035.000 -857.500
21609950.000 4577950.000 -607.500
21608600.000 4578307.500 -1192.500
21608300.000 4578067.500 -1082.500
21608600.000 4578450.000 -1270.000
21609300.000 4578620.000 -1145.000
21608500.000 4578322.500 -1207.500
21608200.000 4578540.000 -1310.000
21608200.000 4578240.000 -1165.000
21608300.000 4578697.500 -1341.250
21608200.000 4578915.000 -1317.500
21608600.000 4578630.000 -1311.250
21608400.000 4578855.000 -1372.500
21608700.000 4578605.000 -1297.500
21608600.000 4578810.000 -1352.500
21608900.000 4578915.000 -1352.500
21609650.000 4578705.000 -1082.500
21608500.000 4579012.500 -1403.750
21608675.000 4579355.000 -1470.000
21608200.000 4579290.000 -1325.000
21609150.000 4579255.000 -1380.000
21609050.000 4579475.000 -1470.000
21610000.000 4578790.000 -1020.000
21609900.000 4579045.000 -1110.000
21610000.000 4578490.000 -887.500
21610000.000 4578640.000 -953.750
21610000.000 4578340.000 -821.250
21610000.000 4578190.000 -755.000
21609975.000 4578070.000 -681.250
21609300.000 4579440.000 -1380.000
21610000.000 4579030.000 -1072.500
21610000.000 4579270.000 -1125.000
21610000.000 4579030.000 -1072.500
21610000.000 4579510.000 -1177.500
21609700.000 4579555.000 -1290.000
21610000.000 4579510.000 -1177.500
21610000.000 4579750.000 -1230.000
21609875.000 4579952.500 -1253.750
21609200.000 4580050.000 -1501.250
21610100.000 4580135.000 -1130.000
21610150.000 4580327.500 -1080.000
21609625.000 4580357.500 -1301.250
21609300.000 4580220.000 -1442.500
21610200.000 4580520.000 -1030.000
21609500.000 4580560.000 -1325.000
21609525.000 4580372.500 -1338.750
21610075.000 4580882.500 -1121.250
21609425.000 4580890.000 -1332.500
21610250.000 4580915.000 -1072.500
21609950.000 4581245.000 -1212.500
21610350.000 4581705.000 -1157.500
21610350.000 4581705.000 -1157.500
21609825.000 4581607.500 -1303.750
21609600.000 4581265.000 -1360.000
21609775.000 4582160.000 -1328.750
21609500.000 4581595.000 -1388.750
21610400.000 4582100.000 -1200.000
21610300.000 4582257.500 -1182.500
21609850.000 4582350.000 -1262.500
21610325.000 4582602.500 -1083.750
21610100.000 4582572.500 -1147.500
21610300.000 4582770.000 -1045.000
21609800.000 4582517.500 -1186.250
21610000.000 4582730.000 -1130.000
21609600.000 4582305.000 -1242.500
21609625.000 4582137.500 -1340.000
21609725.000 4582507.500 -1171.250
21609450.000 4582285.000 -1212.500
21609400.000 4582092.500 -1298.750
21609175.000 4582062.500 -1253.750
21609500.000 4581940.000 -1410.000
21609200.000 4581880.000 -1355.000
21609200.000 4581555.000 -1351.250
21608900.000 4581840.000 -1295.000
21608850.000 4581530.000 -1292.500
21609050.000 4581210.000 -1317.500
21608650.000 4581540.000 -1292.500
21608550.000 4581235.000 -1267.500
21608550.000 4581545.000 -1320.000
21608200.000 4581250.000 -1345.000
21608150.000 4580940.000 -1287.500
21608375.000 4580932.500 -1253.750
21607850.000 4580955.000 -1370.000
21607900.000 4580640.000 -1285.000
21607500.000 4580660.000 -1395.000
21608100.000 4580630.000 -1240.000
21607950.000 4580485.000 -1347.500
21608700.000 4580600.000 -1285.000
21608250.000 4580467.500 -1306.250
21608750.000 4580910.000 -1287.500
21609125.000 4580895.000 -1328.750
21609200.000 4580580.000 -1340.000
21608750.000 4580427.500 -1357.500
21609400.000 4580390.000 -1383.750
21609175.000 4580405.000 -1395.000
21608800.000 4580255.000 -1430.000
21608975.000 4580077.500 -1516.250
21608550.000 4580290.000 -1395.000
21608475.000 4580135.000 -1450.000
21608825.000 4579725.000 -1540.000
21608275.000 4580157.500 -1438.750
21608300.000 4580000.000 -1505.000
21608250.000 4580315.000 -1372.500
21608000.000 4580330.000 -1410.000
21608125.000 4580172.500 -1461.250
21608100.000 4580020.000 -1535.000
21607950.000 4580180.000 -1500.000
21607200.000 4580150.000 -1785.000
21607275.000 4580277.500 -1687.500
21607400.000 4579947.500 -1670.000
21608075.000 4579850.000 -1482.500
21607125.000 4580025.000 -1778.750
21607050.000 4579900.000 -1772.500
21607800.000 4579542.500 -1440.000
21606975.000 4579775.000 -1766.250
21606900.000 4579650.000 -1760.000
21608000.000 4579340.000 -1325.000
21608075.000 4579505.000 -1370.000
21607400.000 4579080.000 -1500.000
21608075.000 4579127.500 -1328.750
21606875.000 4579442.500 -1738.750
21606850.000 4579235.000 -1717.500
21607100.000 4578950.000 -1587.500
21607825.000 4578802.500 -1336.250
21606825.000 4579027.500 -1696.250
21606800.000 4578820.000 -1675.000
21607700.000 4578640.000 -1340.000
21606850.000 4578637.500 -1507.500
21607525.000 4578502.500 -1256.250
21606700.000 4578657.500 -1570.000
21606600.000 4578495.000 -1465.000
21606500.000 4578332.500 -1360.000
21607175.000 4578227.500 -1088.750
21607350.000 4578365.000 -1172.500
21606400.000 4578170.000 -1255.000
21606550.000 4577980.000 -1223.750
21607000.000 4577750.000 -1067.500
21606250.000 4578030.000 -1307.500
21606100.000 4577890.000 -1360.000
21606850.000 4577600.000 -1161.250
21605950.000 4577750.000 -1412.500
21605800.000 4577610.000 -1465.000
21607000.000 4577410.000 -1130.000
21607000.000 4577580.000 -1098.750
21606875.000 4577157.500 -1171.250
21605825.000 4577317.500 -1468.750
21607050.000 4576065.000 -1032.500
21608075.000 4577000.000 -848.750
21606325.000 4576702.500 -1337.500
21606500.000 4575945.000 -1101.250
21605875.000 4576732.500 -1476.250
21605550.000 4577045.000 -1640.000
21605900.000 4576440.000 -1480.000
21605425.000 4576762.500 -1727.500
21606100.000 4576275.000 -1353.750
21605650.000 4576115.000 -1542.500
21605300.000 4576480.000 -1815.000
21605325.000 4576307.500 -1762.500
21605350.000 4576135.000 -1710.000
21605375.000 4575962.500 -1657.500
21605400.000 4575790.000 -1605.000
21606700.000 4575780.000 -975.000
21606325.000 4575240.000 -1481.250
21606775.000 4575610.000 -1066.250
21605600.000 4575607.500 -1616.250
21606000.000 4575242.500 -1638.750
21605425.000 4575600.000 -1675.000
21605450.000 4575410.000 -1745.000
21605475.000 4575220.000 -1815.000
21605500.000 4575030.000 -1885.000
21606075.000 4574882.500 -1701.250
21605550.000 4574860.000 -1877.500
21606725.000 4574260.000 -1518.750
21607000.000 4574945.000 -1343.750
21605700.000 4574350.000 -1855.000
21605750.000 4574162.500 -1893.750
21605650.000 4574520.000 -1862.500
21605600.000 4574690.000 -1870.000
21606450.000 4574040.000 -1682.500
21607225.000 4573992.500 -1373.750
21605800.000 4573975.000 -1932.500
21605850.000 4573787.500 -1971.250
21605900.000 4573600.000 -2010.000
21607300.000 4573830.000 -1380.000
21606100.000 4573462.500 -1821.250
21607000.000 4573440.000 -1317.500
21607325.000 4573685.000 -1272.500
21606300.000 4573325.000 -1632.500
21606500.000 4573187.500 -1443.750
21606700.000 4573050.000 -1255.000
21607375.000 4573395.000 -1057.500
21606900.000 4572932.500 -1165.000
21607425.000 4573082.500 -936.250
21606700.000 4572860.000 -1255.000
21606700.000 4572670.000 -1255.000
21607300.000 4572697.500 -985.000
21606700.000 4572480.000 -1255.000
21606700.000 4572290.000 -1255.000
21606750.000 4572130.000 -1286.250
21606800.000 4571970.000 -1317.500
21606850.000 4571810.000 -1348.750
21606900.000 4571650.000 -1380.000
21607225.000 4571587.500 -1272.500
21607550.000 4571525.000 -1165.000
21607100.000 4571542.500 -1292.500
21607300.000 4571435.000 -1205.000
21606900.000 4571470.000 -1358.750
21606900.000 4571290.000 -1337.500
21606900.000 4571110.000 -1316.250
21606900.000 4570930.000 -1295.000
21606975.000 4570842.500 -1281.250
21607050.000 4570755.000 -1267.500
21607125.000 4570667.500 -1253.750
21607700.000 4573605.000 -1005.000
21607075.000 4574317.500 -1361.250
21607250.000 4575267.500 -1155.000
21607500.000 4575435.000 -970.000
21607175.000 4577557.500 -1102.500
21608000.000 4577422.500 -915.000
21607525.000 4577852.500 -1047.500
21608125.000 4577407.500 -915.000
21608150.000 4577585.000 -950.000
21608225.000 4577392.500 -900.000
21608475.000 4577717.500 -940.000
21608175.000 4577762.500 -985.000
21607800.000 4577807.500 -985.000
21607825.000 4578135.000 -1092.500
21607950.000 4578270.000 -1165.000
21607700.000 4578320.000 -1180.000
21607700.000 4578480.000 -1260.000
21608075.000 4578405.000 -1237.500
21608200.000 4579102.500 -1321.250
21608225.000 4579467.500 -1370.000
21608150.000 4579670.000 -1415.000
21608500.000 4579575.000 -1470.000
21608750.000 4579540.000 -1505.000
21608300.000 4579635.000 -1415.000
21608350.000 4579807.500 -1460.000
21608225.000 4579835.000 -1460.000
21609150.000 4580230.000 -1450.000
21605675.000 4577327.500 -1552.500
21607800.000 4580340.000 -1465.000
21607350.000 4580405.000 -1590.000
21607650.000 4580500.000 -1430.000
21607425.000 4580532.500 -1492.500
21608800.000 4581220.000 -1290.000
21610000.000 4578490.000 -887.500
21610000.000 4578190.000 -755.000
21610000.000 4578340.000 -821.250

POLYGONS 632 2528
3 195 223 201
3 380 265 381
3 53 52 54
3 244 387 186
3 273 274 275
3 221 220 222
3 63 64 62
3 172 164 170
3 334 361 338
3 248 252 250
3 306 305 303
3 13 12 11
3 84 83 80
3 373 367 374
3 47 48 50
3 19 21 20
3 393 225 222
3 365 141 290
3 185 187 184
3 387 242 190
3 109 100 101
3 133 132 130
3 81 349 86
3 267 167 379
3 322 318 320
3 246 243 247
3 79 77 80
3 369 372 371
3 374 375 151
3 349 348 86
3 185 190 189
3 99 361 98
3 254 251 252
3 365 284 367
3 361 334 101
3 97 106 95
3 135 130 131
3 121 115 119
3 167 264 265
3 111 112 114
3 243 240 242
3 376 281 276
3 294 297 296
3 136 137 138
3 296 292 294
3 143 142 140
3 293 388 289
3 186 190 185
3 323 322 320
3 85 340 88
3 148 176 149
3 70 68 69
3 162 160 165
3 14 11 8
3 342 339 343
3 290 141 295
3 96 93 94
3 234 233 236
3 35 32 47
3 100 109 107
3 159 162 161
3 238 239 235
3 117 118 120
3 389 234 251
3 342 341 339
3 100 96 98
3 90 87 88
3 347 346 86
3 76 77 79
3 189 191 188
3 357 356 3
3 304 300 303
3 98 361 101
3 372 369 366
3 290 291 365
3 373 374 151
3 113 115 110
3 33 31 32
3 34 35 37
3 88 92 90
3 55 54 52
3 220 219 203
3 158 267 379
3 360 359 6
3 285 282 283
3 93 92 88
3 276 274 377
3 364 363 311
3 150 152 148
3 45 44 41
3 100 98 101
3 341 337 339
3 69 68 65
3 323 320 326
3 274 155 378
3 164 163 168
3 177 182 171
3 4 78 69
3 196 194 197
3 115 117 119
3 30 29 26
3 391 234 389
3 237 229 225
3 86 345 85
3 385 384 386
3 121 123 115
3 205 207 204
3 290 292 289
3 174 153 164
3 145 146 147
3 222 225 224
3 124 116 115
3 364 120 118
3 276 281 275
3 246 245 243
3 367 280 374
3 238 235 237
3 192 191 189
3 71 69 72
3 264 167 267
3 171 179 178
3 260 257 261
3 271 266 267
3 158 157 155
3 208 211 209
3 309 308 297
3 344 342 343
3 182 181 171
3 376 276 377
3 173 172 170
3 213 212 206
3 116 127 110
3 47 32 24
3 198 199 191
3 221 222 224
3 23 22 24
3 236 250 251
3 18 17 15
3 47 46 41
3 212 213 216
3 391 231 234
3 103 102 100
3 337 336 333
3 382 383 166
3 163 162 165
3 114 113 111
3 383 169 166
3 298 300 301
3 84 87 89
3 331 330 326
3 292 293 289
3 338 94 333
3 259 255 257
3 386 381 258
3 313 310 318
3 309 311 310
3 298 299 293
3 267 158 271
3 167 265 380
3 227 226 225
3 376 375 374
3 235 236 233
3 33 32 34
3 19 15 16
3 356 355 353
3 109 101 111
3 99 98 94
3 146 140 371
3 263 264 266
3 108 103 107
3 312 308 310
3 188 187 189
3 322 324 318
3 279 275 280
3 0 1 2
3 4 69 65
3 353 351 3
3 241 192 193
3 292 296 293
3 110 127 107
3 158 379 160
3 119 117 120
3 371 151 146
3 380 381 384
3 339 340 343
3 32 23 24
3 38 36 37
3 229 228 225
3 371 372 151
3 244 243 242
3 324 325 318
3 40 42 39
3 288 286 287
3 219 218 203
3 349 77 78
3 269 266 270
3 9 5 7
3 361 99 338
3 40 41 42
3 75 74 71
3 351 350 78
3 148 149 147
3 245 246 248
3 181 179 171
3 98 96 94
3 253 255 254
3 152 159 161
3 381 386 384
3 220 203 201
3 235 240 245
3 87 84 85
3 174 164 172
3 358 357 3
3 139 140 142
3 300 302 303
3 302 300 296
3 311 309 364
3 180 178 179
3 367 373 366
3 93 95 92
3 195 239 238
3 262 260 261
3 203 218 202
3 177 186 185
3 243 245 240
3 148 146 150
3 253 386 258
3 280 367 284
3 311 363 321
3 81 80 77
3 335 332 333
3 161 162 163
3 13 14 15
3 72 75 71
3 221 219 220
3 181 184 183
3 102 103 105
3 311 321 310
3 153 148 152
3 260 259 257
3 116 110 115
3 170 178 180
3 313 318 317
3 331 327 112
3 141 370 140
3 102 105 104
3 313 316 312
3 71 74 73
3 39 37 35
3 70 71 73
3 117 113 118
3 169 177 168
3 314 308 312
3 58 59 60
3 158 160 157
3 26 28 25
3 255 256 254
3 318 310 320
3 263 262 261
3 177 169 186
3 356 353 3
3 102 96 100
3 13 15 17
3 32 30 23
3 290 289 287
3 2 351 78
3 307 306 303
3 289 288 287
3 254 256 389
3 58 14 59
3 340 94 88
3 156 378 155
3 316 315 312
3 294 309 297
3 86 85 81
3 310 313 312
3 287 284 291
3 382 247 383
3 159 160 162
3 389 390 391
3 170 171 178
3 36 33 34
3 309 120 364
3 175 176 148
3 210 211 208
3 65 0 4
3 264 263 261
3 11 7 8
3 26 25 23
3 379 165 160
3 31 29 30
3 14 16 15
3 206 210 208
3 213 218 216
3 29 28 26
3 250 252 251
3 135 133 130
3 271 158 155
3 305 304 303
3 320 362 327
3 68 67 65
3 215 216 217
3 4 0 2
3 102 104 96
3 195 238 223
3 336 335 333
3 272 269 270
3 83 82 80
3 114 362 321
3 242 239 241
3 231 233 234
3 10 7 11
3 64 0 65
3 308 309 310
3 140 139 135
3 56 22 16
3 108 128 103
3 279 278 275
3 16 14 56
3 351 2 3
3 114 321 113
3 59 61 60
3 101 112 111
3 327 331 326
3 236 235 245
3 154 151 156
3 353 355 352
3 174 175 153
3 216 219 217
3 233 228 229
3 136 135 137
3 317 316 313
3 246 249 248
3 334 331 101
3 278 277 275
3 243 244 247
3 170 164 168
3 10 9 7
3 277 273 275
3 96 97 95
3 339 94 340
3 274 270 271
3 328 323 326
3 315 314 312
3 143 145 144
3 25 21 23
3 108 127 128
3 283 284 287
3 120 129 119
3 18 19 20
3 22 52 24
3 36 34 37
3 8 63 59
3 223 393 222
3 28 27 25
3 89 90 91
3 230 231 232
3 193 190 241
3 223 237 393
3 283 280 284
3 236 245 248
3 229 235 233
3 0 8 7
3 182 184 181
3 122 121 119
3 375 156 151
3 214 212 215
3 169 247 186
3 334 338 333
3 136 133 135
3 196 191 194
3 39 38 37
3 332 330 331
3 156 375 378
3 35 47 41
3 32 35 34
3 281 376 374
3 163 164 153
3 150 151 154
3 194 192 195
3 366 365 367
3 30 26 23
3 368 369 370
3 345 343 85
3 115 113 117
3 131 309 294
3 353 352 350
3 257 258 261
3 363 364 118
3 295 141 135
3 198 204 199
3 131 294 295
3 78 4 2
3 275 281 280
3 137 135 139
3 264 261 265
3 109 110 107
3 100 107 103
3 286 285 283
3 159 157 160
3 145 143 146
3 387 190 186
3 275 274 276
3 0 64 63
3 14 13 11
3 337 94 339
3 383 247 169
3 257 253 258
3 200 203 202
3 248 250 236
3 363 113 321
3 126 125 124
3 48 49 50
3 197 198 196
3 226 224 225
3 392 232 391
3 295 135 131
3 127 125 126
3 297 308 303
3 154 152 150
3 292 290 294
3 59 14 8
3 146 151 150
3 87 90 89
3 14 58 56
3 224 226 221
3 62 61 59
3 21 19 22
3 141 365 366
3 142 143 144
3 168 177 171
3 380 382 166
3 382 384 385
3 192 189 193
3 12 10 11
3 72 76 75
3 130 120 131
3 168 163 166
3 165 167 166
3 348 347 86
3 184 187 188
3 310 321 320
3 185 184 177
3 94 337 333
3 331 334 333
3 384 382 380
3 21 22 23
3 120 309 131
3 114 112 362
3 183 179 181
3 201 200 197
3 52 51 24
3 132 134 129
3 387 244 242
3 212 210 206
3 113 110 111
3 265 261 258
3 345 344 343
3 362 112 327
3 167 380 166
3 87 85 88
3 63 62 59
3 266 264 267
3 201 197 195
3 251 234 236
3 232 231 391
3 65 67 66
3 84 80 81
3 174 172 175
3 253 254 252
3 166 163 165
3 330 329 326
3 253 252 248
3 129 120 130
3 1 3 2
3 359 358 6
3 161 163 153
3 205 204 202
3 155 152 154
3 113 363 118
3 153 175 148
3 200 201 203
3 291 284 365
3 247 244 186
3 294 290 295
3 22 56 52
3 41 43 42
3 0 5 1
3 270 266 271
3 349 81 77
3 326 320 327
3 202 213 206
3 247 382 385
3 101 331 112
3 132 129 130
3 377 274 378
3 142 144 139
3 52 53 51
3 79 80 82
3 146 148 147
3 237 235 229
3 208 209 207
3 223 238 237
3 27 21 25
3 370 369 371
3 78 77 72
3 40 39 35
3 381 265 258
3 255 253 257
3 5 0 7
3 299 388 293
3 389 251 254
3 146 143 140
3 123 124 115
3 72 69 78
3 385 249 246
3 283 282 280
3 393 237 225
3 129 122 119
3 354 349 352
3 220 201 223
3 228 231 230
3 56 55 52
3 212 216 215
3 332 331 333
3 5 360 6
3 296 300 298
3 198 200 202
3 198 197 200
3 8 0 63
3 216 218 219
3 48 24 49
3 240 239 242
3 6 3 1
3 351 353 350
3 84 89 91
3 141 368 370
3 107 127 108
3 338 99 94
3 227 228 230
3 325 319 318
3 242 241 190
3 352 349 350
3 205 206 208
3 268 263 266
3 319 317 318
3 205 208 207
3 385 246 247
3 64 65 66
3 228 233 231
3 70 69 71
3 94 93 88
3 196 198 191
3 132 133 134
3 152 157 159
3 217 219 221
3 350 349 78
3 46 45 41
3 269 268 266
3 280 281 374
3 171 170 168
3 282 279 280
3 296 298 293
3 152 161 153
3 19 18 15
3 301 300 304
3 93 96 95
3 85 84 81
3 256 390 389
3 228 227 225
3 76 72 77
3 321 362 320
3 346 345 86
3 253 249 386
3 249 385 386
3 220 223 222
3 32 31 30
3 239 192 241
3 376 377 375
3 273 272 270
3 204 198 202
3 22 19 16
3 97 104 106
3 41 40 35
3 110 109 111
3 210 212 214
3 235 239 240
3 206 205 202
3 373 372 366
3 58 57 56
3 41 44 43
3 166 169 168
3 218 213 202
3 372 373 151
3 155 274 271
3 51 49 24
3 193 189 190
3 57 55 56
3 197 194 195
3 297 302 296
3 127 116 125
3 1 5 6
3 47 24 48
3 290 287 291
3 141 366 368
3 377 378 375
3 303 302 297
3 308 307 303
3 138 133 136
3 104 97 96
3 192 239 195
3 191 192 194
3 125 116 124
3 355 354 352
3 210 214 211
3 85 343 340
3 140 370 371
3 274 273 270
3 366 369 368
3 390 392 391
3 154 156 155
3 299 298 301
3 6 358 3
3 187 185 189
3 329 328 326
3 140 135 141
3 184 182 177
3 286 283 287
3 249 253 248
3 379 167 165
3 152 155 157
3 394 395 396

POINT_DATA 397
COLOR_SCALARS GocadColor 4
0 1 0.48333 1
0 1 0.48333 1
0 1 0.48333 1
0 1 0.48333 1
0 1 0.48333 1
0 1 0.48333 1
0 1 0.48333 1
0 1 0.48333 1
0 1 0.48333 1
0 1 0.48333 1
0 1 0.48333 1
0 1 0.48333 1
0 1 0.48333 1
0 1 0.48333 1
0 1 0.48333 1
0 1 0.48333 1
0 1 0.48333 1
0 1 0.48333 1
0 1 0.48333 1
0 1 0.48333 1
0 1 0.48333 1
0 1 0.48333 1
0 1 0.48333 1
0 1 0.48333 1
0 1 0.48333 1
0 1 0.48333 1
0 1 0.48333 1
0 1 0.48333 1
0 1 0.48333 1
0 1 0.48333 1
0 1 0.48333 1
0 1 0.48333 1
0 1 0.48333 1
0 1 0.48333 1
0 1 0.48333 1
0 1 0.48333 1
0 1 0.48333 1
0 1 0.48333 1
0 1 0.48333 1
0 1 0.48333 1
0 1 0.48333 1
0 1 0.48333 1
0 1 0.48333 1
0 1 0.48333 1
0 1 0.48333 1
0 1 0.48333 1
0 1 0.48333 1
0 1 0.48333 1
0 1 0.48333 1
0 1 0.48333 1
0 1 0.48333 1
0 1 0.48333 1
0 1 0.48333 1
0 1 0.48333 1
0 1 0.48333 1
0 1 0.48333 1
0 1 0.48333 1
0 1 0.48333 1
0 1 0.48333 1
0 1 0.48333 1
0 1 0.48333 1
0 1 0.48333 1
0 1 0.48333 1
0 1 0.48333 1
0 1 0.48333 1
0 1 0.48333 1
0 1 0.48333 1
0 1 0.48333 1
0 1 0.48333 1
0 1 0.48333 1
0 1 0.48333 1
0 1 0.48333 1
0 1 0.48333 1
0 1 0.48333 1
0 1 0.48333 1
0 1 0.48333 1
0 1 0.48333 1
0 1 0.48333 1
0 1 0.48333 1
0 1 0.48333 1
0 1 0.48333 1
0 1 0.48333 1
0 1 0.48333 1
0 1 0.48333 1
0 1 0.48333 1
0 1 0.48333 1
0 1 0.48333 1
0 1 0.48333 1
0 1 0.48333 1
0 1 0.48333 1
0 1 0.48333 1
0 1 0.48333 1
0 1 0.48333 1
0 1 0.48333 1
0 1 0.48333 1
0 1 0.48333 1
0 1 0.48333 1
0 1 0.48333 1
0 1 0.48333 1
0 1 0.48333 1
0 1 0.48333 1
0 1 0.48333 1
0 1 0.48333 1
0 1 0.48333 1
0 1 0.48333 1
0 1 0.48333 1
0 1 0.48333 1
0 1 0.48333 1
0 1 0.48333 1
0 1 0.48333 1
0 1 0.48333 1
0 1 0.48333 1
0 1 0.48333 1
0 1 0.48333 1
0 1 0.48333 1
0 1 0.48333 1
0 1 0.48333 1
0 1 0.48333 1
0 1 0.48333 1
0 1 0.48333 1
0 1 0.48333 1
0 1 0.48333 1
0 1 0.48333 1
0 1 0.48333 1
0 1 0.48333 1
0 1 0.48333 1
0 1 0.48333 1
0 1 0.48333 1
0 1 0.48333 1
0 1 0.48333 1
0 1 0.48333 1
0 1 0.48333 1
0 1 0.48333 1
0 1 0.48333 1
0 1 0.48333 1
0 1 0.48333 1
0 1 0.48333 1
0 1 0.48333 1
0 1 0.48333 1
0 1 0.48333 1
0 1 0.48333 1
0 1 0.48333 1
0 1 0.48333 1
0 1 0.48333 1
0 1 0.48333 1
0 1 0.48333 1
0 1 0.48333 1
0 1 0.48333 1
0 1 0.48333 1
0 1 0.48333 1
0 1 0.48333 1
0 1 0.48333 1
0 1 0.48333 1
0 1 0.48333 1
0 1 0.48333 1
0 1 0.48333 1
0 1 0.48333 1
0 1 0.48333 1
0 1 0.48333 1
0 1 0.48333 1
0 1 0.48333 1
0 1 0.48333 1
0 1 0.48333 1
0 1 0.48333 1
0 1 0.48333 1
0 1 0.48333 1
0 1 0.48333 1
0 1 0.48333 1
0 1 0.48333 1
0 1 0.48333 1
0 1 0.48333 1
0 1 0.48333 1
0 1 0.48333 1
0 1 0.48333 1
0 1 0.48333 1
0 1 0.48333 1
0 1 0.48333 1
0 1 0.48333 1
0 1 0.48333 1
0 1 0.48333 1
0 1 0.48333 1
0 1 0.48333 1
0 1 0.48333 1
0 1 0.48333 1
0 1 0.48333 1
0 1 0.48333 1
0 1 0.48333 1
0 1 0.48333 1
0 1 0.48333 1
0 1 0.48333 1
0 1 0.48333 1
0 1 0.48333 1
0 1 0.48333 1
0 1 0.48333 1
0 1 0.48333 1
0 1 0.48333 1
0 1 0.48333 1
0 1 0.48333 1
0 1 0.48333 1
0 1 0.48333 1
0 1 0.48333 1
0 1 0.48333 1
0 1 0.48333 1
0 1 0.48333 1
0 1 0.48333 1
0 1 0.48333 1
0 1 0.48333 1
0 1 0.48333 1
0 1 0.48333 1
0 1 0.48333 1
0 1 0.48333 1
0 1 0.48333 1
0 1 0.48333 1
0 1 0.48333 1
0 1 0.48333 1
0 1 0.48333 1
0 1 0.48333 1
0 1 0.48333 1
0 1 0.48333 1
0 1 0.48333 1
0 1 0.48333 1
0 1 0.48333 1
0 1 0.48333 1
0 1 0.48333 1
0 1 0.48333 1
0 1 0.48333 1
0 1 0.48333 1
0 1 0.48333 1
0 1 0.48333 1
0 1 0.48333 1
0 1 0.48333 1
0 1 0.48333 1
0 1 0.48333 1
0 1 0.48333 1
0 1 0.48333 1
0 1 0.48333 1
0 1 0.48333 1
0 1 0.48333 1
0 1 0.48333 1
0 1 0.48333 1
0 1 0.48333 1
0 1 0.48333 1
0 1 0.48333 1
0 1 0.48333 1
0 1 0.48333 1
0 1 0.48333 1
0 1 0.48333 1
0 1 0.48333 1
0 1 0.48333 1
0 1 0.48333 1
0 1 0.48333 1
0 1 0.48333 1
0 1 0.48333 1
0 1 0.48333 1
0 1 0.48333 1
0 1 0.48333 1
0 1 0.48333 1
0 1 0.48333 1
0 1 0.48333 1
0 1 0.48333 1
0 1 0.48333 1
0 1 0.48333 1
0 1 0.48333 1
0 1 0.48333 1
0 1 0.48333 1
0 1 0.48333 1
0 1 0.48333 1
0 1 0.48333 1
0 1 0.48333 1
0 1 0.48333 1
0 1 0.48333 1
0 1 0.48333 1
0 1 0.48333 1
0 1 0.48333 1
0 1 0.48333 1
0 1 0.48333 1
0 1 0.48333 1
0 1 0.48333 1
0 1 0.48333 1
0 1 0.48333 1
0 1 0.48333 1
0 1 0.48333 1
0 1 0.48333 1
0 1 0.48333 1
0 1 0.48333 1
0 1 0.48333 1
0 1 0.48333 1
0 1 0.48333 1
0 1 0.48333 1
0 1 0.48333 1
0 1 0.48333 1
0 1 0.48333 1
0 1 0.48333 1
0 1 0.48333 1
0 1 0.48333 1
0 1 0.48333 1
0 1 0.48333 1
0 1 0.48333 1
0 1 0.48333 1
0 1 0.48333 1
0 1 0.48333 1
0 1 0.48333 1
0 1 0.48333 1
0 1 0.48333 1
0 1 0.48333 1
0 1 0.48333 1
0 1 0.48333 1
0 1 0.48333 1
0 1 0.48333 1
0 1 0.48333 1
0 1 0.48333 1
0 1 0.48333 1
0 1 0.48333 1
0 1 0.48333 1
0 1 0.48333 1
0 1 0.48333 1
0 1 0.48333 1
0 1 0.48333 1
0 1 0.48333 1
0 1 0.48333 1
0 1 0.48333 1
0 1 0.48333 1
0 1 0.48333 1
0 1 0.48333 1
0 1 0.48333 1
0 1 0.48333 1
0 1 0.48333 1
0 1 0.48333 1
0 1 0.48333 1
0 1 0.48333 1
0 1 0.48333 1
0 1 0.48333 1
0 1 0.48333 1
0 1 0.48333 1
0 1 0.48333 1
0 1 0.48333 1
0 1 0.48333 1
0 1 0.48333 1
0 1 0.48333 1
0 1 0.48333 1
0 1 0.48333 1
0 1 0.48333 1
0 1 0.48333 1
0 1 0.48333 1
0 1 0.48333 1
0 1 0.48333 1
0 1 0.48333 1
0 1 0.48333 1
0 1 0.48333 1
0 1 0.48333 1
0 1 0.48333 1
0 1 0.48333 1
0 1 0.48333 1
0 1 0.48333 1
0 1 0.48333 1
0 1 0.48333 1
0 1 0.48333 1
0 1 0.48333 1
0 1 0.48333 1
0 1 0.48333 1
0 1 0.48333 1
0 1 0.48333 1
0 1 0.48333 1
0 1 0.48333 1
0 1 0.48333 1
0 1 0.48333 1
0 1 0.48333 1
0 1 0.48333 1
0 1 0.48333 1
0 1 0.48333 1
0 1 0.48333 1
0 1 0.48333 1
0 1 0.48333 1
0 1 0.48333 1
0 1 0.48333 1
0 1 0.48333 1
0 1 0.48333 1
0 1 0.48333 1
0 1 0.48333 1
0 1 0.48333 1
0 1 0.48333 1
0 1 0.48333 1
0 1 0.48333 1
0 1 0.48333 1
0 1 0.48333 1
0 1 0.48333 1
0 1 0.48333 1
0 1 0.48333 1
0 1 0.48333 1
0 1 0.48333 1
0 1 0.48333 1
0 1 0.48333 1
0 1 0.48333 1
0 1 0.48333 1
0 1 0.48333 1
0 1 0.48333 1
0 1 0.48333 1

