# vtk DataFile Version 3.0
Gocad TSurf to VTK
ASCII
DATASET POLYDATA
POINTS 334 float
21610000.000 4577700.000 -2820.000
21608900.000 4577840.000 -3165.000
21609700.000 4577557.500 -2830.000
21608875.000 4577662.500 -3088.750
21609975.000 4577510.000 -2707.500
21609175.000 4577925.000 -3133.750
21610000.000 4577820.000 -2875.000
21609050.000 4578090.000 -3270.000
21608525.000 4578320.000 -3396.250
21609725.000 4578095.000 -3071.250
21610000.000 4577940.000 -2930.000
21609125.000 4578527.500 -3445.000
21609850.000 4578682.500 -3313.750
21608750.000 4578290.000 -3375.000
21608675.000 4578627.500 -3497.500
21608175.000 4578732.500 -3526.250
21608150.000 4578395.000 -3415.000
21607850.000 4578462.500 -3460.000
21608100.000 4578250.000 -3360.000
21608050.000 4578105.000 -3305.000
21607900.000 4578295.000 -3390.000
21607000.000 4578090.000 -3235.000
21606900.000 4578455.000 -3550.000
21608200.000 4577752.500 -3152.500
21607700.000 4577832.500 -3263.750
21608400.000 4577545.000 -3055.000
21608825.000 4577307.500 -2936.250
21609100.000 4577272.500 -2850.000
21608800.000 4577130.000 -2860.000
21607100.000 4577577.500 -3291.250
21609925.000 4577130.000 -2482.500
21609675.000 4576767.500 -2500.000
21609950.000 4577320.000 -2595.000
21610100.000 4577295.000 -2525.000
21610050.000 4577497.500 -2672.500
21610150.000 4577092.500 -2377.500
21610200.000 4576890.000 -2230.000
21609975.000 4576747.500 -2311.250
21610200.000 4576710.000 -2206.250
21610200.000 4576530.000 -2182.500
21610200.000 4576350.000 -2158.750
21610200.000 4576170.000 -2135.000
21608900.000 4576005.000 -2742.500
21609850.000 4576067.500 -2250.000
21608800.000 4575612.500 -2758.750
21610225.000 4576062.500 -2065.000
21610225.000 4576062.500 -2065.000
21610250.000 4575955.000 -1995.000
21610275.000 4575847.500 -1925.000
21610300.000 4575740.000 -1855.000
21609550.000 4575495.000 -2372.500
21608600.000 4575605.000 -2828.750
21610300.000 4575612.500 -1928.750
21610300.000 4575485.000 -2002.500
21610300.000 4575612.500 -1928.750
21610300.000 4575357.500 -2076.250
21610300.000 4575230.000 -2150.000
21610300.000 4575357.500 -2076.250
21609600.000 4575000.000 -2722.500
21610375.000 4574930.000 -2183.750
21608575.000 4574505.000 -3453.750
21608000.000 4575140.000 -3530.000
21610075.000 4574662.500 -2441.250
21609425.000 4574327.500 -2933.750
21610400.000 4574830.000 -2195.000
21610475.000 4574732.500 -2207.500
21610625.000 4574537.500 -2232.500
21610475.000 4574732.500 -2207.500
21610550.000 4574635.000 -2220.000
21610700.000 4574440.000 -2245.000
21609900.000 4574160.000 -2657.500
21610700.000 4574370.000 -2217.500
21608200.000 4573597.500 -3307.500
21607900.000 4573410.000 -3350.000
21607575.000 4574027.500 -3773.750
21607600.000 4573620.000 -3600.000
21606900.000 4573960.000 -3976.250
21606500.000 4574090.000 -4102.500
21606950.000 4573435.000 -3885.000
21605900.000 4573590.000 -4410.000
21606600.000 4573040.000 -3920.000
21606425.000 4573177.500 -4042.500
21607100.000 4572830.000 -3697.500
21606650.000 4572857.500 -3916.250
21607675.000 4572817.500 -3443.750
21607350.000 4572725.000 -3586.250
21608625.000 4573495.000 -2980.000
21609350.000 4573580.000 -2610.000
21610700.000 4574160.000 -2135.000
21610725.000 4574057.500 -2068.750
21610700.000 4574230.000 -2162.500
21610700.000 4574300.000 -2190.000
21610750.000 4573955.000 -2002.500
21610775.000 4573852.500 -1936.250
21610800.000 4573750.000 -1870.000
21609200.000 4572850.000 -2742.500
21607825.000 4572170.000 -3403.750
21610800.000 4573582.500 -1905.000
21610800.000 4573415.000 -1940.000
21610800.000 4573247.500 -1975.000
21610800.000 4573080.000 -2010.000
21609350.000 4572175.000 -2820.000
21610800.000 4572892.500 -2072.500
21607900.000 4572020.000 -3380.000
21608125.000 4571570.000 -3230.000
21607075.000 4571907.500 -3726.250
21606825.000 4572150.000 -3881.250
21606900.000 4571670.000 -3810.000
21606875.000 4571830.000 -3833.750
21607225.000 4571607.500 -3652.500
21606900.000 4571485.000 -3775.000
21607550.000 4571545.000 -3495.000
21607950.000 4571207.500 -3291.250
21606900.000 4571300.000 -3740.000
21606900.000 4571115.000 -3705.000
21606900.000 4570930.000 -3670.000
21606975.000 4570840.000 -3658.750
21607050.000 4570750.000 -3647.500
21607450.000 4570782.500 -3513.750
21608200.000 4571120.000 -3180.000
21607125.000 4570660.000 -3636.250
21607200.000 4570570.000 -3625.000
21608200.000 4570820.000 -3180.000
21607600.000 4570335.000 -3430.000
21607225.000 4570412.500 -3605.000
21608050.000 4570280.000 -3221.250
21607800.000 4570217.500 -3332.500
21608825.000 4570792.500 -2880.000
21609450.000 4570765.000 -2580.000
21610900.000 4571460.000 -2010.000
21610850.000 4571272.500 -2002.500
21610225.000 4571450.000 -2302.500
21610850.000 4571895.000 -2135.000
21609550.000 4571440.000 -2595.000
21610825.000 4572112.500 -2197.500
21610800.000 4572330.000 -2260.000
21610075.000 4572252.500 -2540.000
21610825.000 4572112.500 -2197.500
21610800.000 4572517.500 -2197.500
21610875.000 4571677.500 -2072.500
21610850.000 4571272.500 -2002.500
21610800.000 4571085.000 -1995.000
21610750.000 4570897.500 -1987.500
21610700.000 4570710.000 -1980.000
21609300.000 4570100.000 -2650.000
21608000.000 4570100.000 -3235.000
21610675.000 4570557.500 -2001.250
21609950.000 4570100.000 -2357.500
21610625.000 4570252.500 -2043.750
21610600.000 4570100.000 -2065.000
21608200.000 4569510.000 -2900.000
21608150.000 4569657.500 -2983.750
21610350.000 4569880.000 -2246.250
21608900.000 4569365.000 -2845.000
21610550.000 4569925.000 -2187.500
21610500.000 4569750.000 -2310.000
21610575.000 4569932.500 -2176.250
21610550.000 4569765.000 -2287.500
21610525.000 4569597.500 -2398.750
21610450.000 4569575.000 -2432.500
21610500.000 4569430.000 -2510.000
21610400.000 4569400.000 -2555.000
21609850.000 4568995.000 -2462.500
21610400.000 4569265.000 -2416.250
21610300.000 4569100.000 -2322.500
21610175.000 4568927.500 -2240.000
21610200.000 4568935.000 -2228.750
21610100.000 4568770.000 -2135.000
21609225.000 4568665.000 -2550.000
21609100.000 4568480.000 -2470.000
21609000.000 4568582.500 -2621.250
21609200.000 4568795.000 -2677.500
21608800.000 4568370.000 -2565.000
21608625.000 4568500.000 -2730.000
21608450.000 4568630.000 -2895.000
21608275.000 4568760.000 -3060.000
21608100.000 4568890.000 -3225.000
21608125.000 4569045.000 -3143.750
21608025.000 4569015.000 -3182.500
21607950.000 4569140.000 -3140.000
21607875.000 4569265.000 -3097.500
21607800.000 4569390.000 -3055.000
21607850.000 4569567.500 -3100.000
21607675.000 4569527.500 -3177.500
21607950.000 4569922.500 -3190.000
21607550.000 4569665.000 -3300.000
21607425.000 4569802.500 -3422.500
21607300.000 4569940.000 -3545.000
21607275.000 4570097.500 -3565.000
21607250.000 4570255.000 -3585.000
21606850.000 4571990.000 -3857.500
21606800.000 4572310.000 -3905.000
21606750.000 4572492.500 -3908.750
21606700.000 4572675.000 -3912.500
21606250.000 4573315.000 -4165.000
21606075.000 4573452.500 -4287.500
21605850.000 4573780.000 -4396.250
21605800.000 4573970.000 -4382.500
21605750.000 4574160.000 -4368.750
21605700.000 4574350.000 -4355.000
21606900.000 4574655.000 -3976.250
21605625.000 4574520.000 -4351.250
21605550.000 4574690.000 -4347.500
21605475.000 4574860.000 -4343.750
21605400.000 4575030.000 -4340.000
21605825.000 4575217.500 -4057.500
21607100.000 4575780.000 -3210.000
21605450.000 4575220.000 -4245.000
21605400.000 4575410.000 -4200.000
21605400.000 4575220.000 -4270.000
21605400.000 4575600.000 -4130.000
21605400.000 4575790.000 -4060.000
21605600.000 4575790.000 -3960.000
21605375.000 4575960.000 -4098.750
21605450.000 4576130.000 -4087.500
21605325.000 4576300.000 -4176.250
21605325.000 4576300.000 -4176.250
21605300.000 4576470.000 -4215.000
21606000.000 4576100.000 -3815.000
21606050.000 4577010.000 -3615.000
21606575.000 4576252.500 -3555.000
21605600.000 4577325.000 -3723.750
21605700.000 4577610.000 -3560.000
21606800.000 4577450.000 -3305.000
21607300.000 4576065.000 -3257.500
21606675.000 4577632.500 -3351.250
21606850.000 4577610.000 -3287.500
21605850.000 4577752.500 -3542.500
21606550.000 4577815.000 -3397.500
21606950.000 4577930.000 -3252.500
21606000.000 4577895.000 -3525.000
21606150.000 4578037.500 -3507.500
21606300.000 4578180.000 -3490.000
21606425.000 4578340.000 -3583.750
21606550.000 4578500.000 -3677.500
21606675.000 4578660.000 -3771.250
21606800.000 4578820.000 -3865.000
21607800.000 4579200.000 -3687.500
21607050.000 4578962.500 -3833.750
21607900.000 4579545.000 -3708.750
21606825.000 4579030.000 -3913.750
21606850.000 4579240.000 -3962.500
21606875.000 4579450.000 -4011.250
21606900.000 4579660.000 -4060.000
21607500.000 4579775.000 -3787.500
21608100.000 4579855.000 -3646.250
21606975.000 4579785.000 -4003.750
21607050.000 4579910.000 -3947.500
21607125.000 4580035.000 -3891.250
21607200.000 4580160.000 -3835.000
21608200.000 4580010.000 -3615.000
21607850.000 4580335.000 -3642.500
21608150.000 4580320.000 -3552.500
21607275.000 4580285.000 -3793.750
21607350.000 4580410.000 -3752.500
21607425.000 4580535.000 -3711.250
21607500.000 4580660.000 -3670.000
21608275.000 4580467.500 -3498.750
21607850.000 4580952.500 -3561.250
21608450.000 4580922.500 -3403.750
21608825.000 4580430.000 -3542.500
21608200.000 4581245.000 -3452.500
21608500.000 4581230.000 -3362.500
21608900.000 4580900.000 -3433.750
21608550.000 4581537.500 -3343.750
21608750.000 4581527.500 -3291.250
21608900.000 4581210.000 -3367.500
21608900.000 4581830.000 -3235.000
21608900.000 4581520.000 -3301.250
21609025.000 4581515.000 -3298.750
21609150.000 4581200.000 -3362.500
21609475.000 4581597.500 -3373.750
21609275.000 4580885.000 -3426.250
21608925.000 4580415.000 -3531.250
21609350.000 4581240.000 -3412.500
21609900.000 4581230.000 -3327.500
21609700.000 4581585.000 -3331.250
21609500.000 4581940.000 -3335.000
21610400.000 4582100.000 -3180.000
21609300.000 4581910.000 -3335.000
21609475.000 4582117.500 -3150.000
21609650.000 4582325.000 -2965.000
21609175.000 4582057.500 -3075.000
21609450.000 4582285.000 -2915.000
21609725.000 4582512.500 -2755.000
21609825.000 4582532.500 -2780.000
21610200.000 4582420.000 -2887.500
21610000.000 4582740.000 -2595.000
21610100.000 4582580.000 -2741.250
21610300.000 4582770.000 -2510.000
21610325.000 4582602.500 -2677.500
21610375.000 4582267.500 -3012.500
21610350.000 4581310.000 -3250.000
21610325.000 4580915.000 -3285.000
21610325.000 4580915.000 -3285.000
21610300.000 4580520.000 -3320.000
21610100.000 4580875.000 -3323.750
21609400.000 4580570.000 -3490.000
21610075.000 4579942.500 -3308.750
21609100.000 4580060.000 -3591.250
21610000.000 4579750.000 -3305.000
21608950.000 4580240.000 -3570.000
21608750.000 4580270.000 -3570.000
21608600.000 4579760.000 -3632.500
21608950.000 4579490.000 -3640.000
21608525.000 4580117.500 -3583.750
21608450.000 4580285.000 -3542.500
21608600.000 4579380.000 -3647.500
21608150.000 4578925.000 -3582.500
21608925.000 4579290.000 -3647.500
21608900.000 4579090.000 -3655.000
21609175.000 4579255.000 -3567.500
21609450.000 4579420.000 -3480.000
21609850.000 4579075.000 -3380.000
21609725.000 4579585.000 -3392.500
21609900.000 4579300.000 -3355.000
21610050.000 4579255.000 -3300.000
21609950.000 4579525.000 -3330.000
21610025.000 4579502.500 -3302.500
21610075.000 4579007.500 -3297.500
21609800.000 4578850.000 -3405.000
21610100.000 4578760.000 -3295.000
21610025.000 4578325.000 -3103.750
21610000.000 4578180.000 -3040.000
21610025.000 4578325.000 -3103.750
21609050.000 4578715.000 -3515.000
21608800.000 4578765.000 -3550.000
21608625.000 4579002.500 -3602.500
21608850.000 4578927.500 -3602.500
21607850.000 4576587.500 -3211.250
21608650.000 4576922.500 -2940.000
21608350.000 4576165.000 -3033.750
21607500.000 4575770.000 -3040.000
21607850.000 4576035.000 -3110.000

POLYGONS 514 2056
3 304 303 307
3 265 262 266
3 135 136 133
3 283 281 284
3 107 103 105
3 130 128 141
3 219 221 217
3 209 204 207
3 296 295 293
3 147 151 150
3 28 31 30
3 14 327 15
3 200 77 74
3 13 14 15
3 108 107 105
3 314 315 317
3 63 69 66
3 16 17 20
3 96 103 95
3 5 7 1
3 22 21 17
3 286 278 291
3 257 306 260
3 123 126 125
3 190 108 105
3 288 287 285
3 176 175 171
3 316 315 313
3 289 288 290
3 24 229 29
3 26 28 27
3 267 279 282
3 308 307 245
3 250 245 303
3 67 65 68
3 152 155 154
3 262 261 259
3 168 167 165
3 129 130 140
3 189 188 123
3 193 192 82
3 242 241 238
3 325 11 320
3 310 328 325
3 279 277 280
3 225 223 226
3 327 308 15
3 144 151 147
3 126 145 125
3 332 224 206
3 0 2 4
3 231 230 228
3 282 280 283
3 169 167 168
3 217 215 214
3 236 22 17
3 180 179 177
3 322 324 321
3 305 303 301
3 118 122 119
3 332 44 331
3 275 276 274
3 51 61 60
3 223 28 29
3 85 191 96
3 19 23 8
3 43 41 42
3 38 37 31
3 39 38 31
3 102 138 100
3 309 310 311
3 73 88 70
3 245 250 244
3 89 87 92
3 104 119 133
3 236 17 237
3 227 222 225
3 58 51 60
3 323 322 12
3 321 320 12
3 275 293 276
3 293 294 292
3 230 227 228
3 217 218 219
3 77 76 74
3 199 198 77
3 170 169 168
3 105 103 96
3 103 107 109
3 268 266 269
3 11 325 14
3 310 327 328
3 107 110 109
3 264 262 265
3 307 303 245
3 145 186 184
3 50 44 51
3 17 15 237
3 55 56 57
3 188 187 126
3 129 127 130
3 223 222 219
3 239 245 244
3 159 160 158
3 21 232 228
3 133 131 134
3 74 72 60
3 293 295 294
3 148 143 146
3 167 166 165
3 122 123 125
3 192 85 82
3 124 189 123
3 161 160 159
3 241 240 238
3 319 316 313
3 314 312 313
3 263 259 273
3 11 12 320
3 268 265 266
3 16 8 15
3 99 98 95
3 97 95 98
3 78 75 76
3 218 212 220
3 164 163 161
3 286 281 277
3 122 129 131
3 214 213 212
3 131 132 134
3 185 183 184
3 238 236 237
3 164 165 166
3 178 176 177
3 235 234 22
3 145 151 144
3 261 258 259
3 227 225 228
3 45 47 46
3 32 34 4
3 160 161 163
3 32 33 34
3 279 267 269
3 0 6 5
3 333 332 331
3 301 303 299
3 21 229 24
3 17 16 15
3 161 159 152
3 330 331 42
3 162 161 152
3 211 210 205
3 59 56 58
3 228 225 229
3 144 128 145
3 115 116 112
3 43 42 44
3 129 132 131
3 26 27 3
3 57 53 55
3 270 266 263
3 311 320 313
3 281 280 277
3 320 321 319
3 286 288 285
3 140 130 141
3 326 328 327
3 305 306 252
3 317 315 318
3 299 273 301
3 276 271 274
3 210 208 205
3 134 132 137
3 297 299 298
3 1 23 3
3 29 28 25
3 8 13 15
3 277 271 276
3 311 313 312
3 249 248 244
3 312 304 311
3 41 40 31
3 40 39 31
3 297 272 273
3 275 296 293
3 21 20 17
3 247 246 244
3 97 94 95
3 1 0 5
3 224 329 223
3 1 3 2
3 188 126 123
3 45 46 41
3 292 276 293
3 110 113 109
3 150 149 147
3 269 270 271
3 187 145 126
3 232 21 22
3 183 182 184
3 73 80 82
3 125 145 128
3 118 119 112
3 212 211 205
3 146 143 144
3 28 26 25
3 238 237 239
3 112 104 111
3 218 220 219
3 63 72 70
3 2 3 27
3 30 32 27
3 145 184 151
3 171 162 153
3 320 310 325
3 305 250 303
3 201 199 200
3 129 122 127
3 9 7 5
3 152 150 153
3 153 162 152
3 90 91 70
3 215 216 211
3 279 269 271
3 130 127 128
3 251 250 252
3 308 327 307
3 323 10 6
3 79 78 76
3 149 150 152
3 281 286 285
3 49 52 54
3 58 62 64
3 116 117 112
3 176 171 153
3 75 74 76
3 272 263 273
3 55 53 50
3 284 281 285
3 117 118 112
3 109 111 104
3 332 51 44
3 74 75 72
3 153 150 177
3 128 127 125
3 135 134 137
3 297 295 296
3 174 173 170
3 329 331 330
3 173 172 170
3 257 252 306
3 302 301 273
3 80 83 82
3 255 254 251
3 100 99 95
3 175 174 171
3 217 214 218
3 182 151 184
3 1 7 8
3 121 124 123
3 170 168 171
3 296 275 272
3 113 111 109
3 82 85 84
3 31 37 30
3 52 49 50
3 122 121 123
3 136 101 133
3 205 61 206
3 3 23 25
3 243 242 239
3 283 280 281
3 58 50 51
3 114 115 111
3 51 332 206
3 327 310 307
3 79 195 78
3 234 233 22
3 122 131 119
3 272 270 263
3 95 103 101
3 287 284 285
3 278 286 277
3 7 9 11
3 64 62 65
3 266 270 269
3 73 75 78
3 101 136 102
3 24 25 23
3 9 323 12
3 68 65 66
3 36 35 30
3 115 112 111
3 297 296 272
3 4 2 32
3 131 133 119
3 50 53 52
3 19 20 23
3 54 52 53
3 155 158 157
3 300 317 318
3 275 274 272
3 149 152 154
3 144 143 128
3 333 224 332
3 301 302 305
3 242 238 239
3 151 182 150
3 101 104 133
3 303 304 299
3 72 63 60
3 172 169 170
3 197 196 77
3 28 330 42
3 65 62 66
3 232 231 228
3 198 197 77
3 259 257 260
3 87 84 96
3 61 204 200
3 309 304 307
3 106 190 105
3 194 81 78
3 44 42 331
3 261 262 264
3 333 329 224
3 10 9 5
3 71 70 91
3 93 92 87
3 282 279 280
3 7 13 8
3 200 74 61
3 213 215 211
3 145 187 186
3 258 256 257
3 50 58 56
3 276 292 278
3 222 221 219
3 291 290 286
3 259 260 273
3 74 60 61
3 250 249 244
3 45 43 47
3 253 249 251
3 150 181 177
3 196 76 77
3 64 59 58
3 229 21 228
3 312 314 304
3 177 176 153
3 23 1 8
3 290 291 289
3 297 298 295
3 299 304 314
3 20 21 23
3 14 326 327
3 147 149 148
3 218 214 212
3 299 300 298
3 28 223 329
3 31 28 42
3 328 326 325
3 320 319 313
3 11 14 13
3 136 138 102
3 101 103 104
3 213 211 212
3 84 85 96
3 251 252 257
3 256 255 251
3 184 186 185
3 257 256 251
3 155 159 158
3 260 302 273
3 9 12 11
3 41 31 42
3 322 323 324
3 62 58 60
3 103 109 104
3 179 178 177
3 204 203 200
3 30 33 32
3 333 331 329
3 127 122 125
3 273 299 297
3 16 18 8
3 267 268 269
3 240 236 238
3 63 62 60
3 225 226 229
3 135 138 136
3 315 316 318
3 220 224 219
3 88 90 70
3 203 202 200
3 208 207 205
3 207 204 205
3 222 223 225
3 181 180 177
3 34 0 4
3 0 1 2
3 233 232 22
3 219 224 223
3 278 277 276
3 15 308 237
3 106 105 96
3 216 215 217
3 154 155 157
3 182 181 150
3 88 73 86
3 196 79 76
3 290 288 286
3 121 122 118
3 83 193 82
3 27 28 30
3 134 135 133
3 200 199 77
3 315 314 313
3 117 120 118
3 212 206 220
3 262 259 263
3 277 279 271
3 18 19 8
3 244 243 239
3 32 2 27
3 330 28 329
3 325 326 14
3 245 239 308
3 72 73 70
3 220 206 224
3 80 73 78
3 25 24 29
3 204 61 205
3 13 7 11
3 249 250 251
3 64 65 67
3 104 112 119
3 208 209 207
3 63 70 69
3 206 212 205
3 73 82 84
3 260 306 302
3 141 128 142
3 95 94 87
3 226 29 229
3 94 93 87
3 95 101 100
3 182 183 181
3 310 309 307
3 214 215 213
3 304 309 311
3 144 147 146
3 191 106 96
3 48 43 44
3 102 100 101
3 71 69 70
3 37 36 30
3 162 165 161
3 89 86 87
3 195 194 78
3 165 164 161
3 50 49 44
3 239 237 308
3 267 264 265
3 48 47 43
3 95 87 96
3 302 306 305
3 192 191 85
3 73 72 75
3 246 243 244
3 310 320 311
3 36 37 38
3 171 174 170
3 248 247 244
3 81 80 78
3 226 223 29
3 321 12 322
3 259 258 257
3 262 263 266
3 300 314 317
3 154 157 156
3 88 86 89
3 87 86 84
3 265 268 267
3 149 154 156
3 19 18 20
3 25 26 3
3 143 142 128
3 16 20 18
3 21 24 23
3 159 155 152
3 139 132 129
3 274 270 272
3 6 10 5
3 250 305 252
3 289 287 288
3 270 274 271
3 254 253 251
3 49 48 44
3 43 45 41
3 86 73 84
3 147 148 146
3 113 114 111
3 299 314 300
3 162 168 165
3 56 55 50
3 61 51 206
3 120 121 118
3 10 323 9
3 236 235 22
3 171 168 162
3 62 63 66
3 35 33 30
3 202 201 200

POINT_DATA 334
COLOR_SCALARS GocadColor 4
1 0.74902 0.795026 1
1 0.74902 0.795026 1
1 0.74902 0.795026 1
1 0.74902 0.795026 1
1 0.74902 0.795026 1
1 0.74902 0.795026 1
1 0.74902 0.795026 1
1 0.74902 0.795026 1
1 0.74902 0.795026 1
1 0.74902 0.795026 1
1 0.74902 0.795026 1
1 0.74902 0.795026 1
1 0.74902 0.795026 1
1 0.74902 0.795026 1
1 0.74902 0.795026 1
1 0.74902 0.795026 1
1 0.74902 0.795026 1
1 0.74902 0.795026 1
1 0.74902 0.795026 1
1 0.74902 0.795026 1
1 0.74902 0.795026 1
1 0.74902 0.795026 1
1 0.74902 0.795026 1
1 0.74902 0.795026 1
1 0.74902 0.795026 1
1 0.74902 0.795026 1
1 0.74902 0.795026 1
1 0.74902 0.795026 1
1 0.74902 0.795026 1
1 0.74902 0.795026 1
1 0.74902 0.795026 1
1 0.74902 0.795026 1
1 0.74902 0.795026 1
1 0.74902 0.795026 1
1 0.74902 0.795026 1
1 0.74902 0.795026 1
1 0.74902 0.795026 1
1 0.74902 0.795026 1
1 0.74902 0.795026 1
1 0.74902 0.795026 1
1 0.74902 0.795026 1
1 0.74902 0.795026 1
1 0.74902 0.795026 1
1 0.74902 0.795026 1
1 0.74902 0.795026 1
1 0.74902 0.795026 1
1 0.74902 0.795026 1
1 0.74902 0.795026 1
1 0.74902 0.795026 1
1 0.74902 0.795026 1
1 0.74902 0.795026 1
1 0.74902 0.795026 1
1 0.74902 0.795026 1
1 0.74902 0.795026 1
1 0.74902 0.795026 1
1 0.74902 0.795026 1
1 0.74902 0.795026 1
1 0.74902 0.795026 1
1 0.74902 0.795026 1
1 0.74902 0.795026 1
1 0.74902 0.795026 1
1 0.74902 0.795026 1
1 0.74902 0.795026 1
1 0.74902 0.795026 1
1 0.74902 0.795026 1
1 0.74902 0.795026 1
1 0.74902 0.795026 1
1 0.74902 0.795026 1
1 0.74902 0.795026 1
1 0.74902 0.795026 1
1 0.74902 0.795026 1
1 0.74902 0.795026 1
1 0.74902 0.795026 1
1 0.74902 0.795026 1
1 0.74902 0.795026 1
1 0.74902 0.795026 1
1 0.74902 0.795026 1
1 0.74902 0.795026 1
1 0.74902 0.795026 1
1 0.74902 0.795026 1
1 0.74902 0.795026 1
1 0.74902 0.795026 1
1 0.74902 0.795026 1
1 0.74902 0.795026 1
1 0.74902 0.795026 1
1 0.74902 0.795026 1
1 0.74902 0.795026 1
1 0.74902 0.795026 1
1 0.74902 0.795026 1
1 0.74902 0.795026 1
1 0.74902 0.795026 1
1 0.74902 0.795026 1
1 0.74902 0.795026 1
1 0.74902 0.795026 1
1 0.74902 0.795026 1
1 0.74902 0.795026 1
1 0.74902 0.795026 1
1 0.74902 0.795026 1
1 0.74902 0.795026 1
1 0.74902 0.795026 1
1 0.74902 0.795026 1
1 0.74902 0.795026 1
1 0.74902 0.795026 1
1 0.74902 0.795026 1
1 0.74902 0.795026 1
1 0.74902 0.795026 1
1 0.74902 0.795026 1
1 0.74902 0.795026 1
1 0.74902 0.795026 1
1 0.74902 0.795026 1
1 0.74902 0.795026 1
1 0.74902 0.795026 1
1 0.74902 0.795026 1
1 0.74902 0.795026 1
1 0.74902 0.795026 1
1 0.74902 0.795026 1
1 0.74902 0.795026 1
1 0.74902 0.795026 1
1 0.74902 0.795026 1
1 0.74902 0.795026 1
1 0.74902 0.795026 1
1 0.74902 0.795026 1
1 0.74902 0.795026 1
1 0.74902 0.795026 1
1 0.74902 0.795026 1
1 0.74902 0.795026 1
1 0.74902 0.795026 1
1 0.74902 0.795026 1
1 0.74902 0.795026 1
1 0.74902 0.795026 1
1 0.74902 0.795026 1
1 0.74902 0.795026 1
1 0.74902 0.795026 1
1 0.74902 0.795026 1
1 0.74902 0.795026 1
1 0.74902 0.795026 1
1 0.74902 0.795026 1
1 0.74902 0.795026 1
1 0.74902 0.795026 1
1 0.74902 0.795026 1
1 0.74902 0.795026 1
1 0.74902 0.795026 1
1 0.74902 0.795026 1
1 0.74902 0.795026 1
1 0.74902 0.795026 1
1 0.74902 0.795026 1
1 0.74902 0.795026 1
1 0.74902 0.795026 1
1 0.74902 0.795026 1
1 0.74902 0.795026 1
1 0.74902 0.795026 1
1 0.74902 0.795026 1
1 0.74902 0.795026 1
1 0.74902 0.795026 1
1 0.74902 0.795026 1
1 0.74902 0.795026 1
1 0.74902 0.795026 1
1 0.74902 0.795026 1
1 0.74902 0.795026 1
1 0.74902 0.795026 1
1 0.74902 0.795026 1
1 0.74902 0.795026 1
1 0.74902 0.795026 1
1 0.74902 0.795026 1
1 0.74902 0.795026 1
1 0.74902 0.795026 1
1 0.74902 0.795026 1
1 0.74902 0.795026 1
1 0.74902 0.795026 1
1 0.74902 0.795026 1
1 0.74902 0.795026 1
1 0.74902 0.795026 1
1 0.74902 0.795026 1
1 0.74902 0.795026 1
1 0.74902 0.795026 1
1 0.74902 0.795026 1
1 0.74902 0.795026 1
1 0.74902 0.795026 1
1 0.74902 0.795026 1
1 0.74902 0.795026 1
1 0.74902 0.795026 1
1 0.74902 0.795026 1
1 0.74902 0.795026 1
1 0.74902 0.795026 1
1 0.74902 0.795026 1
1 0.74902 0.795026 1
1 0.74902 0.795026 1
1 0.74902 0.795026 1
1 0.74902 0.795026 1
1 0.74902 0.795026 1
1 0.74902 0.795026 1
1 0.74902 0.795026 1
1 0.74902 0.795026 1
1 0.74902 0.795026 1
1 0.74902 0.795026 1
1 0.74902 0.795026 1
1 0.74902 0.795026 1
1 0.74902 0.795026 1
1 0.74902 0.795026 1
1 0.74902 0.795026 1
1 0.74902 0.795026 1
1 0.74902 0.795026 1
1 0.74902 0.795026 1
1 0.74902 0.795026 1
1 0.74902 0.795026 1
1 0.74902 0.795026 1
1 0.74902 0.795026 1
1 0.74902 0.795026 1
1 0.74902 0.795026 1
1 0.74902 0.795026 1
1 0.74902 0.795026 1
1 0.74902 0.795026 1
1 0.74902 0.795026 1
1 0.74902 0.795026 1
1 0.74902 0.795026 1
1 0.74902 0.795026 1
1 0.74902 0.795026 1
1 0.74902 0.795026 1
1 0.74902 0.795026 1
1 0.74902 0.795026 1
1 0.74902 0.795026 1
1 0.74902 0.795026 1
1 0.74902 0.795026 1
1 0.74902 0.795026 1
1 0.74902 0.795026 1
1 0.74902 0.795026 1
1 0.74902 0.795026 1
1 0.74902 0.795026 1
1 0.74902 0.795026 1
1 0.74902 0.795026 1
1 0.74902 0.795026 1
1 0.74902 0.795026 1
1 0.74902 0.795026 1
1 0.74902 0.795026 1
1 0.74902 0.795026 1
1 0.74902 0.795026 1
1 0.74902 0.795026 1
1 0.74902 0.795026 1
1 0.74902 0.795026 1
1 0.74902 0.795026 1
1 0.74902 0.795026 1
1 0.74902 0.795026 1
1 0.74902 0.795026 1
1 0.74902 0.795026 1
1 0.74902 0.795026 1
1 0.74902 0.795026 1
1 0.74902 0.795026 1
1 0.74902 0.795026 1
1 0.74902 0.795026 1
1 0.74902 0.795026 1
1 0.74902 0.795026 1
1 0.74902 0.795026 1
1 0.74902 0.795026 1
1 0.74902 0.795026 1
1 0.74902 0.795026 1
1 0.74902 0.795026 1
1 0.74902 0.795026 1
1 0.74902 0.795026 1
1 0.74902 0.795026 1
1 0.74902 0.795026 1
1 0.74902 0.795026 1
1 0.74902 0.795026 1
1 0.74902 0.795026 1
1 0.74902 0.795026 1
1 0.74902 0.795026 1
1 0.74902 0.795026 1
1 0.74902 0.795026 1
1 0.74902 0.795026 1
1 0.74902 0.795026 1
1 0.74902 0.795026 1
1 0.74902 0.795026 1
1 0.74902 0.795026 1
1 0.74902 0.795026 1
1 0.74902 0.795026 1
1 0.74902 0.795026 1
1 0.74902 0.795026 1
1 0.74902 0.795026 1
1 0.74902 0.795026 1
1 0.74902 0.795026 1
1 0.74902 0.795026 1
1 0.74902 0.795026 1
1 0.74902 0.795026 1
1 0.74902 0.795026 1
1 0.74902 0.795026 1
1 0.74902 0.795026 1
1 0.74902 0.795026 1
1 0.74902 0.795026 1
1 0.74902 0.795026 1
1 0.74902 0.795026 1
1 0.74902 0.795026 1
1 0.74902 0.795026 1
1 0.74902 0.795026 1
1 0.74902 0.795026 1
1 0.74902 0.795026 1
1 0.74902 0.795026 1
1 0.74902 0.795026 1
1 0.74902 0.795026 1
1 0.74902 0.795026 1
1 0.74902 0.795026 1
1 0.74902 0.795026 1
1 0.74902 0.795026 1
1 0.74902 0.795026 1
1 0.74902 0.795026 1
1 0.74902 0.795026 1
1 0.74902 0.795026 1
1 0.74902 0.795026 1
1 0.74902 0.795026 1
1 0.74902 0.795026 1
1 0.74902 0.795026 1
1 0.74902 0.795026 1
1 0.74902 0.795026 1
1 0.74902 0.795026 1
1 0.74902 0.795026 1
1 0.74902 0.795026 1
1 0.74902 0.795026 1
1 0.74902 0.795026 1
1 0.74902 0.795026 1
1 0.74902 0.795026 1
1 0.74902 0.795026 1
1 0.74902 0.795026 1
1 0.74902 0.795026 1
1 0.74902 0.795026 1
1 0.74902 0.795026 1
1 0.74902 0.795026 1
1 0.74902 0.795026 1
1 0.74902 0.795026 1
1 0.74902 0.795026 1
1 0.74902 0.795026 1
1 0.74902 0.795026 1
1 0.74902 0.795026 1
1 0.74902 0.795026 1
1 0.74902 0.795026 1
1 0.74902 0.795026 1
1 0.74902 0.795026 1

