# vtk DataFile Version 3.0
Gocad TSurf to VTK
ASCII
DATASET POLYDATA
POINTS 1972 float
21578150.000 4573930.000 -1430.000
21578175.000 4573675.000 -1560.000
21578550.000 4574185.000 -1380.000
21578800.000 4573790.000 -1535.000
21578125.000 4574185.000 -1300.000
21577950.000 4573830.000 -1430.000
21577725.000 4573972.500 -1302.500
21577750.000 4573715.000 -1435.000
21577775.000 4573457.500 -1560.000
21577350.000 4573505.000 -1325.000
21577575.000 4573352.500 -1507.500
21577125.000 4573657.500 -1142.500
21577700.000 4574230.000 -1170.000
21577100.000 4573380.000 -1192.500
21576850.000 4573510.000 -971.250
21577200.000 4573157.500 -1308.750
21576800.000 4573210.000 -982.500
21577300.000 4572940.000 -1425.000
21577450.000 4572827.500 -1410.000
21577825.000 4573015.000 -1608.750
21577750.000 4572582.500 -1380.000
21577800.000 4573200.000 -1690.000
21578100.000 4572955.000 -1582.500
21578350.000 4573305.000 -1595.000
21578300.000 4573065.000 -1577.500
21578800.000 4573375.000 -1422.500
21579050.000 4573525.000 -1340.000
21578500.000 4573190.000 -1500.000
21578800.000 4573167.500 -1366.250
21578900.000 4572855.000 -1306.250
21579025.000 4573317.500 -1220.000
21579100.000 4573160.000 -1115.000
21579300.000 4573260.000 -1145.000
21579450.000 4573005.000 -1165.000
21579550.000 4573585.000 -1347.500
21579400.000 4573710.000 -1400.000
21579750.000 4573327.500 -1261.250
21579950.000 4573290.000 -1317.500
21579700.000 4573145.000 -1205.000
21579700.000 4572987.500 -1160.000
21579800.000 4573195.000 -1227.500
21579850.000 4573062.500 -1193.750
21579900.000 4572930.000 -1160.000
21579700.000 4572830.000 -1115.000
21580075.000 4573205.000 -1328.750
21580200.000 4573120.000 -1340.000
21580050.000 4572832.500 -1138.750
21580100.000 4573400.000 -1375.000
21580375.000 4573402.500 -1428.750
21580000.000 4573680.000 -1410.000
21580125.000 4573587.500 -1416.250
21579700.000 4573665.000 -1376.250
21579925.000 4573830.000 -1462.500
21579700.000 4573870.000 -1457.500
21580225.000 4573972.500 -1503.750
21580050.000 4574075.000 -1542.500
21580400.000 4573870.000 -1465.000
21580325.000 4574032.500 -1513.750
21580300.000 4574200.000 -1562.500
21580500.000 4573960.000 -1395.000
21580425.000 4574102.500 -1461.250
21580575.000 4573832.500 -1402.500
21580500.000 4573765.000 -1455.000
21580800.000 4573810.000 -1312.500
21580600.000 4573660.000 -1445.000
21581125.000 4574160.000 -988.750
21581100.000 4573660.000 -1215.000
21580550.000 4574177.500 -1408.750
21580850.000 4574352.500 -1187.500
21580600.000 4574395.000 -1422.500
21580275.000 4574387.500 -1593.750
21580700.000 4574830.000 -1450.000
21581450.000 4574682.500 -692.500
21580150.000 4574765.000 -1510.000
21580100.000 4574520.000 -1660.000
21580525.000 4574990.000 -1352.500
21580025.000 4575235.000 -1210.000
21581000.000 4576030.000 -530.000
21581350.000 4575720.000 -572.500
21580000.000 4575470.000 -1060.000
21580075.000 4575750.000 -993.750
21580650.000 4576310.000 -662.500
21579950.000 4575687.500 -1105.000
21579900.000 4575905.000 -1145.000
21579850.000 4575622.500 -1245.000
21579250.000 4575307.500 -1455.000
21579300.000 4575565.000 -1570.000
21579200.000 4575050.000 -1340.000
21579075.000 4575212.500 -1462.500
21579425.000 4574920.000 -1420.000
21579025.000 4574715.000 -1451.250
21579650.000 4574785.000 -1500.000
21579450.000 4574665.000 -1480.000
21579250.000 4574570.000 -1507.500
21579575.000 4574472.500 -1550.000
21579875.000 4574652.500 -1580.000
21579700.000 4574280.000 -1620.000
21579775.000 4574130.000 -1567.500
21579850.000 4573980.000 -1515.000
21579700.000 4574075.000 -1538.750
21579100.000 4573960.000 -1505.000
21579250.000 4573835.000 -1452.500
21579150.000 4573785.000 -1415.000
21578900.000 4574115.000 -1435.000
21579025.000 4574185.000 -1477.500
21578700.000 4574270.000 -1365.000
21578425.000 4574375.000 -1302.500
21578950.000 4574400.000 -1442.500
21578875.000 4574612.500 -1411.250
21578600.000 4574957.500 -1467.500
21578225.000 4574765.000 -1347.500
21578800.000 4574860.000 -1395.000
21578775.000 4575055.000 -1492.500
21578950.000 4575375.000 -1585.000
21578750.000 4575270.000 -1605.000
21579100.000 4575475.000 -1590.000
21578725.000 4575482.500 -1717.500
21579050.000 4575687.500 -1715.000
21579275.000 4575822.500 -1685.000
21578700.000 4575700.000 -1830.000
21579000.000 4575910.000 -1840.000
21578200.000 4575212.500 -1642.500
21578400.000 4575085.000 -1555.000
21578350.000 4575900.000 -2052.500
21578600.000 4575852.500 -1933.750
21577875.000 4575462.500 -1835.000
21578175.000 4576000.000 -2163.750
21577400.000 4574980.000 -1630.000
21577425.000 4575200.000 -1760.000
21578075.000 4574660.000 -1306.250
21577550.000 4574605.000 -1400.000
21577625.000 4574425.000 -1285.000
21577300.000 4574465.000 -1345.000
21576900.000 4574700.000 -1520.000
21577500.000 4574347.500 -1257.500
21576900.000 4574032.500 -1100.000
21576750.000 4573950.000 -943.750
21576450.000 4574230.000 -911.250
21576325.000 4573727.500 -701.250
21576375.000 4573262.500 -736.250
21575375.000 4573220.000 -550.000
21576550.000 4573080.000 -842.500
21576625.000 4572845.000 -923.750
21576750.000 4572910.000 -993.750
21577300.000 4572940.000 -1425.000
21576700.000 4572610.000 -1005.000
21577100.000 4572410.000 -1017.500
21576325.000 4572687.500 -848.750
21576450.000 4572260.000 -828.750
21575900.000 4572740.000 -740.000
21575700.000 4572040.000 -825.000
21576400.000 4571590.000 -685.000
21575350.000 4572420.000 -662.500
21575550.000 4572825.000 -645.000
21575150.000 4572047.500 -605.000
21575300.000 4571840.000 -695.000
21575150.000 4572320.000 -597.500
21575000.000 4572255.000 -515.000
21575175.000 4572610.000 -581.250
21574850.000 4572462.500 -425.000
21574700.000 4572670.000 -335.000
21574900.000 4572185.000 -335.000
21575000.000 4571937.500 -288.750
21574800.000 4572420.000 -196.250
21574900.000 4572175.000 -82.500
21574700.000 4572660.000 -150.000
21574650.000 4573045.000 -110.000
21574875.000 4572457.500 142.500
21574950.000 4572205.000 90.000
21574800.000 4572710.000 195.000
21574800.000 4572912.500 208.750
21574900.000 4572472.500 222.500
21575000.000 4572235.000 250.000
21575100.000 4571997.500 277.500
21575000.000 4571937.500 -48.750
21575200.000 4571770.000 305.000
21575100.000 4571700.000 -15.000
21575100.000 4571700.000 -335.000
21575300.000 4571600.000 242.500
21575200.000 4571760.000 305.000
21575225.000 4571555.000 2.500
21575400.000 4571440.000 180.000
21575225.000 4571555.000 -286.250
21575350.000 4571410.000 -237.500
21575550.000 4571530.000 -627.500
21575500.000 4571490.000 -535.000
21576000.000 4571550.000 -697.500
21575775.000 4571425.000 -626.250
21576100.000 4571380.000 -655.000
21576200.000 4571270.000 -536.250
21575800.000 4571220.000 -560.000
21575675.000 4571375.000 -593.750
21575975.000 4571150.000 -465.000
21575900.000 4571090.000 -326.250
21576100.000 4571040.000 -277.500
21576300.000 4571160.000 -417.500
21576400.000 4571050.000 -298.750
21576475.000 4571072.500 -456.250
21576700.000 4571425.000 -677.500
21576700.000 4571215.000 -621.250
21576600.000 4572120.000 -767.500
21577025.000 4571740.000 -632.500
21576800.000 4572225.000 -817.500
21577100.000 4571960.000 -725.000
21577450.000 4572392.500 -1128.750
21577800.000 4572050.000 -962.500
21577350.000 4572757.500 -1326.250
21577450.000 4572820.000 -1410.000
21577450.000 4572827.500 -1410.000
21578075.000 4572395.000 -1327.500
21578050.000 4572032.500 -1012.500
21578100.000 4572735.000 -1510.000
21578450.000 4572582.500 -1402.500
21578250.000 4572832.500 -1523.750
21578400.000 4572710.000 -1465.000
21578650.000 4572540.000 -1375.000
21578850.000 4572665.000 -1297.500
21578500.000 4572455.000 -1340.000
21578550.000 4572327.500 -1277.500
21578400.000 4572390.000 -1332.500
21578425.000 4572265.000 -1252.500
21578725.000 4572067.500 -1153.750
21578625.000 4572020.000 -1120.000
21578850.000 4571935.000 -1092.500
21578400.000 4571685.000 -865.000
21578100.000 4571880.000 -895.000
21578700.000 4571480.000 -835.000
21578975.000 4571802.500 -1031.250
21578400.000 4571280.000 -775.000
21578050.000 4571455.000 -707.500
21578600.000 4571142.500 -633.750
21578900.000 4571340.000 -717.500
21578275.000 4570952.500 -542.500
21578550.000 4570855.000 -380.000
21578000.000 4571050.000 -705.000
21578050.000 4570817.500 -396.250
21577850.000 4571350.000 -672.500
21577650.000 4571215.000 -562.500
21577875.000 4571552.500 -673.750
21577775.000 4571500.000 -656.250
21577700.000 4571440.000 -626.250
21577600.000 4571570.000 -600.000
21577550.000 4571727.500 -661.250
21577625.000 4571392.500 -581.250
21577400.000 4571450.000 -640.000
21577475.000 4571295.000 -611.250
21577150.000 4571137.500 -571.250
21577500.000 4571105.000 -457.500
21577300.000 4571015.000 -472.500
21577700.000 4570860.000 -525.000
21577550.000 4570937.500 -366.250
21577825.000 4570672.500 -50.000
21577600.000 4570770.000 -275.000
21578400.000 4570760.000 -290.000
21578300.000 4570695.000 212.500
21578725.000 4570687.500 -110.000
21578800.000 4571005.000 -492.500
21578925.000 4570810.000 -235.000
21579100.000 4571200.000 -600.000
21579075.000 4570915.000 -377.500
21579200.000 4571482.500 -818.750
21579100.000 4571670.000 -970.000
21579300.000 4571295.000 -667.500
21579400.000 4571107.500 -516.250
21579500.000 4571425.000 -707.500
21579700.000 4571580.000 -847.500
21579700.000 4571302.500 -576.250
21579500.000 4570920.000 -365.000
21580225.000 4571627.500 -843.750
21580325.000 4571230.000 -681.250
21579900.000 4571700.000 -967.500
21580150.000 4571825.000 -1002.500
21579700.000 4571835.000 -1108.750
21579925.000 4571940.000 -1150.000
21579500.000 4571970.000 -1250.000
21579800.000 4572110.000 -1305.000
21579350.000 4572070.000 -1258.750
21579000.000 4572020.000 -1127.500
21579650.000 4572217.500 -1302.500
21579500.000 4572325.000 -1300.000
21579750.000 4572270.000 -1275.000
21580000.000 4572220.000 -1320.000
21579700.000 4572430.000 -1245.000
21579900.000 4572360.000 -1286.250
21579800.000 4572485.000 -1252.500
21580050.000 4572480.000 -1250.000
21579650.000 4572590.000 -1215.000
[...]
POINT_DATA 1972
COLOR_SCALARS GocadColor 4
0.937255 0.517647 0.937255 1
0.937255 0.517647 0.937255 1
0.937255 0.517647 0.937255 1
0.937255 0.517647 0.937255 1
0.937255 0.517647 0.937255 1
0.937255 0.517647 0.937255 1
0.937255 0.517647 0.937255 1
0.937255 0.517647 0.937255 1
0.937255 0.517647 0.937255 1
0.937255 0.517647 0.937255 1
0.937255 0.517647 0.937255 1
0.937255 0.517647 0.937255 1
0.937255 0.517647 0.937255 1
0.937255 0.517647 0.937255 1
0.937255 0.517647 0.937255 1
0.937255 0.517647 0.937255 1
0.937255 0.517647 0.937255 1
0.937255 0.517647 0.937255 1
0.937255 0.517647 0.937255 1
0.937255 0.517647 0.937255 1
0.937255 0.517647 0.937255 1
0.937255 0.517647 0.937255 1
0.937255 0.517647 0.937255 1
0.937255 0.517647 0.937255 1
0.937255 0.517647 0.937255 1
0.937255 0.517647 0.937255 1
0.937255 0.517647 0.937255 1
0.937255 0.517647 0.937255 1
0.937255 0.517647 0.937255 1
0.937255 0.517647 0.937255 1
0.937255 0.517647 0.937255 1
0.937255 0.517647 0.937255 1
0.937255 0.517647 0.937255 1
0.937255 0.517647 0.937255 1
0.937255 0.517647 0.937255 1
0.937255 0.517647 0.937255 1
0.937255 0.517647 0.937255 1
0.937255 0.517647 0.937255 1
0.937255 0.517647 0.937255 1
0.937255 0.517647 0.937255 1
0.937255 0.517647 0.937255 1
0.937255 0.517647 0.937255 1
0.937255 0.517647 0.937255 1
0.937255 0.517647 0.937255 1
0.937255 0.517647 0.937255 1
0.937255 0.517647 0.937255 1
0.937255 0.517647 0.937255 1
0.937255 0.517647 0.937255 1
0.937255 0.517647 0.937255 1
0.937255 0.517647 0.937255 1
0.937255 0.517647 0.937255 1
0.937255 0.517647 0.937255 1
0.937255 0.517647 0.937255 1
0.937255 0.517647 0.937255 1
0.937255 0.517647 0.937255 1
0.937255 0.517647 0.937255 1
0.937255 0.517647 0.937255 1
0.937255 0.517647 0.937255 1
0.937255 0.517647 0.937255 1
0.937255 0.517647 0.937255 1
0.937255 0.517647 0.937255 1
0.937255 0.517647 0.937255 1
0.937255 0.517647 0.937255 1
0.937255 0.517647 0.937255 1
0.937255 0.517647 0.937255 1
0.937255 0.517647 0.937255 1
0.937255 0.517647 0.937255 1
0.937255 0.517647 0.937255 1
0.937255 0.517647 0.937255 1
0.937255 0.517647 0.937255 1
0.937255 0.517647 0.937255 1
0.937255 0.517647 0.937255 1
0.937255 0.517647 0.937255 1
0.937255 0.517647 0.937255 1
0.937255 0.517647 0.937255 1
0.937255 0.517647 0.937255 1
0.937255 0.517647 0.937255 1
0.937255 0.517647 0.937255 1
0.937255 0.517647 0.937255 1
0.937255 0.517647 0.937255 1
0.937255 0.517647 0.937255 1
0.937255 0.517647 0.937255 1
0.937255 0.517647 0.937255 1
0.937255 0.517647 0.937255 1
0.937255 0.517647 0.937255 1
0.937255 0.517647 0.937255 1
0.937255 0.517647 0.937255 1
0.937255 0.517647 0.937255 1
0.937255 0.517647 0.937255 1
0.937255 0.517647 0.937255 1
0.937255 0.517647 0.937255 1
0.937255 0.517647 0.937255 1
0.937255 0.517647 0.937255 1
0.937255 0.517647 0.937255 1
0.937255 0.517647 0.937255 1
0.937255 0.517647 0.937255 1
0.937255 0.517647 0.937255 1
0.937255 0.517647 0.937255 1
0.937255 0.517647 0.937255 1
0.937255 0.517647 0.937255 1
0.937255 0.517647 0.937255 1
0.937255 0.517647 0.937255 1
0.937255 0.517647 0.937255 1
0.937255 0.517647 0.937255 1
0.937255 0.517647 0.937255 1
0.937255 0.517647 0.937255 1
0.937255 0.517647 0.937255 1
0.937255 0.517647 0.937255 1
0.937255 0.517647 0.937255 1
0.937255 0.517647 0.937255 1
0.937255 0.517647 0.937255 1
0.937255 0.517647 0.937255 1
0.937255 0.517647 0.937255 1
0.937255 0.517647 0.937255 1
0.937255 0.517647 0.937255 1
0.937255 0.517647 0.937255 1
0.937255 0.517647 0.937255 1
0.937255 0.517647 0.937255 1
0.937255 0.517647 0.937255 1
0.937255 0.517647 0.937255 1
0.937255 0.517647 0.937255 1
0.937255 0.517647 0.937255 1
0.937255 0.517647 0.937255 1
0.937255 0.517647 0.937255 1
0.937255 0.517647 0.937255 1
0.937255 0.517647 0.937255 1
0.937255 0.517647 0.937255 1
0.937255 0.517647 0.937255 1
0.937255 0.517647 0.937255 1
0.937255 0.517647 0.937255 1
0.937255 0.517647 0.937255 1
0.937255 0.517647 0.937255 1
0.937255 0.517647 0.937255 1
0.937255 0.517647 0.937255 1
0.937255 0.517647 0.937255 1
0.937255 0.517647 0.937255 1
0.937255 0.517647 0.937255 1
0.937255 0.517647 0.937255 1
0.937255 0.517647 0.937255 1
0.937255 0.517647 0.937255 1
0.937255 0.517647 0.937255 1
0.937255 0.517647 0.937255 1
0.937255 0.517647 0.937255 1
0.937255 0.517647 0.937255 1
0.937255 0.517647 0.937255 1
0.937255 0.517647 0.937255 1
0.937255 0.517647 0.937255 1
0.937255 0.517647 0.937255 1
0.937255 0.517647 0.937255 1
0.937255 0.517647 0.937255 1
0.937255 0.517647 0.937255 1
0.937255 0.517647 0.937255 1
0.937255 0.517647 0.937255 1
0.937255 0.517647 0.937255 1
0.937255 0.517647 0.937255 1
0.937255 0.517647 0.937255 1
0.937255 0.517647 0.937255 1
0.937255 0.517647 0.937255 1
0.937255 0.517647 0.937255 1
0.937255 0.517647 0.937255 1
0.937255 0.517647 0.937255 1
0.937255 0.517647 0.937255 1
0.937255 0.517647 0.937255 1
0.937255 0.517647 0.937255 1
0.937255 0.517647 0.937255 1
0.937255 0.517647 0.937255 1
0.937255 0.517647 0.937255 1
0.937255 0.517647 0.937255 1
0.937255 0.517647 0.937255 1
0.937255 0.517647 0.937255 1
0.937255 0.517647 0.937255 1
0.937255 0.517647 0.937255 1
0.937255 0.517647 0.937255 1
0.937255 0.517647 0.937255 1
0.937255 0.517647 0.937255 1
0.937255 0.517647 0.937255 1
0.937255 0.517647 0.937255 1
0.937255 0.517647 0.937255 1
0.937255 0.517647 0.937255 1
0.937255 0.517647 0.937255 1
0.937255 0.517647 0.937255 1
0.937255 0.517647 0.937255 1
0.937255 0.517647 0.937255 1
0.937255 0.517647 0.937255 1
0.937255 0.517647 0.937255 1
0.937255 0.517647 0.937255 1
0.937255 0.517647 0.937255 1
0.937255 0.517647 0.937255 1
0.937255 0.517647 0.937255 1
0.937255 0.517647 0.937255 1
0.937255 0.517647 0.937255 1
0.937255 0.517647 0.937255 1
0.937255 0.517647 0.937255 1
0.937255 0.517647 0.937255 1
0.937255 0.517647 0.937255 1
0.937255 0.517647 0.937255 1
0.937255 0.517647 0.937255 1
0.937255 0.517647 0.937255 1
0.937255 0.517647 0.937255 1
0.937255 0.517647 0.937255 1
0.937255 0.517647 0.937255 1
0.937255 0.517647 0.937255 1
0.937255 0.517647 0.937255 1
0.937255 0.517647 0.937255 1
0.937255 0.517647 0.937255 1
0.937255 0.517647 0.937255 1
0.937255 0.517647 0.937255 1
0.937255 0.517647 0.937255 1
0.937255 0.517647 0.937255 1
0.937255 0.517647 0.937255 1
0.937255 0.517647 0.937255 1
0.937255 0.517647 0.937255 1
0.937255 0.517647 0.937255 1
0.937255 0.517647 0.937255 1
0.937255 0.517647 0.937255 1
0.937255 0.517647 0.937255 1
0.937255 0.517647 0.937255 1
0.937255 0.517647 0.937255 1
0.937255 0.517647 0.937255 1
0.937255 0.517647 0.937255 1
0.937255 0.517647 0.937255 1
0.937255 0.517647 0.937255 1
0.937255 0.517647 0.937255 1
0.937255 0.517647 0.937255 1
0.937255 0.517647 0.937255 1
0.937255 0.517647 0.937255 1
0.937255 0.517647 0.937255 1
0.937255 0.517647 0.937255 1
0.937255 0.517647 0.937255 1
0.937255 0.517647 0.937255 1
0.937255 0.517647 0.937255 1
0.937255 0.517647 0.937255 1
0.937255 0.517647 0.937255 1
0.937255 0.517647 0.937255 1
0.937255 0.517647 0.937255 1
0.937255 0.517647 0.937255 1
0.937255 0.517647 0.937255 1
0.937255 0.517647 0.937255 1
0.937255 0.517647 0.937255 1
0.937255 0.517647 0.937255 1
0.937255 0.517647 0.937255 1
0.937255 0.517647 0.937255 1
0.937255 0.517647 0.937255 1
0.937255 0.517647 0.937255 1
0.937255 0.517647 0.937255 1
0.937255 0.517647 0.937255 1
0.937255 0.517647 0.937255 1
0.937255 0.517647 0.937255 1
0.937255 0.517647 0.937255 1
0.937255 0.517647 0.937255 1
0.937255 0.517647 0.937255 1
0.937255 0.517647 0.937255 1
0.937255 0.517647 0.937255 1
0.937255 0.517647 0.937255 1
0.937255 0.517647 0.937255 1
0.937255 0.517647 0.937255 1
0.937255 0.517647 0.937255 1
0.937255 0.517647 0.937255 1
0.937255 0.517647 0.937255 1
0.937255 0.517647 0.937255 1
0.937255 0.517647 0.937255 1
0.937255 0.517647 0.937255 1
0.937255 0.517647 0.937255 1
0.937255 0.517647 0.937255 1
0.937255 0.517647 0.937255 1
0.937255 0.517647 0.937255 1
0.937255 0.517647 0.937255 1
0.937255 0.517647 0.937255 1
0.937255 0.517647 0.937255 1
0.937255 0.517647 0.937255 1
0.937255 0.517647 0.937255 1
0.937255 0.517647 0.937255 1
0.937255 0.517647 0.937255 1
0.937255 0.517647 0.937255 1
0.937255 0.517647 0.937255 1
0.937255 0.517647 0.937255 1
0.937255 0.517647 0.937255 1
0.937255 0.517647 0.937255 1
0.937255 0.517647 0.937255 1
0.937255 0.517647 0.937255 1
0.937255 0.517647 0.937255 1
0.937255 0.517647 0.937255 1
0.937255 0.517647 0.937255 1
0.937255 0.517647 0.937255 1
0.937255 0.517647 0.937255 1
0.937255 0.517647 0.937255 1
0.937255 0.517647 0.937255 1
0.937255 0.517647 0.937255 1
0.937255 0.517647 0.937255 1
0.937255 0.517647 0.937255 1
0.937255 0.517647 0.937255 1
0.937255 0.517647 0.937255 1
0.937255 0.517647 0.937255 1
0.937255 0.517647 0.937255 1
0.937255 0.517647 0.937255 1
0.937255 0.517647 0.937255 1
0.937255 0.517647 0.937255 1
0.937255 0.517647 0.937255 1
0.937255 0.517647 0.937255 1
0.937255 0.517647 0.937255 1
0.937255 0.517647 0.937255 1
0.937255 0.517647 0.937255 1
0.937255 0.517647 0.937255 1
0.937255 0.517647 0.937255 1
0.937255 0.517647 0.937255 1
0.937255 0.517647 0.937255 1
0.937255 0.517647 0.937255 1
0.937255 0.517647 0.937255 1
0.937255 0.517647 0.937255 1
0.937255 0.517647 0.937255 1
0.937255 0.517647 0.937255 1
0.937255 0.517647 0.937255 1
0.937255 0.517647 0.937255 1
0.937255 0.517647 0.937255 1
0.937255 0.517647 0.937255 1
0.937255 0.517647 0.937255 1
0.937255 0.517647 0.937255 1
0.937255 0.517647 0.937255 1
0.937255 0.517647 0.937255 1
0.937255 0.517647 0.937255 1
0.937255 0.517647 0.937255 1
0.937255 0.517647 0.937255 1
0.937255 0.517647 0.937255 1
0.937255 0.517647 0.937255 1
0.937255 0.517647 0.937255 1
0.937255 0.517647 0.937255 1
0.937255 0.517647 0.937255 1
0.937255 0.517647 0.937255 1
0.937255 0.517647 0.937255 1
0.937255 0.517647 0.937255 1
0.937255 0.517647 0.937255 1
0.937255 0.517647 0.937255 1
0.937255 0.517647 0.937255 1
0.937255 0.517647 0.937255 1
0.937255 0.517647 0.937255 1
0.937255 0.517647 0.937255 1
0.937255 0.517647 0.937255 1
0.937255 0.517647 0.937255 1
0.937255 0.517647 0.937255 1
0.937255 0.517647 0.937255 1
0.937255 0.517647 0.937255 1
0.937255 0.517647 0.937255 1
0.937255 0.517647 0.937255 1
0.937255 0.517647 0.937255 1
0.937255 0.517647 0.937255 1
0.937255 0.517647 0.937255 1
0.937255 0.517647 0.937255 1
0.937255 0.517647 0.937255 1
0.937255 0.517647 0.937255 1
0.937255 0.517647 0.937255 1
0.937255 0.517647 0.937255 1
0.937255 0.517647 0.937255 1
0.937255 0.517647 0.937255 1
0.937255 0.517647 0.937255 1
0.937255 0.517647 0.937255 1
0.937255 0.517647 0.937255 1
0.937255 0.517647 0.937255 1
0.937255 0.517647 0.937255 1
0.937255 0.517647 0.937255 1
0.937255 0.517647 0.937255 1
0.937255 0.517647 0.937255 1
0.937255 0.517647 0.937255 1
0.937255 0.517647 0.937255 1
0.937255 0.517647 0.937255 1
0.937255 0.517647 0.937255 1
0.937255 0.517647 0.937255 1
0.937255 0.517647 0.937255 1
0.937255 0.517647 0.937255 1
0.937255 0.517647 0.937255 1
0.937255 0.517647 0.937255 1
0.937255 0.517647 0.937255 1
0.937255 0.517647 0.937255 1
0.937255 0.517647 0.937255 1
0.937255 0.517647 0.937255 1
0.937255 0.517647 0.937255 1
0.937255 0.517647 0.937255 1
0.937255 0.517647 0.937255 1
0.937255 0.517647 0.937255 1
0.937255 0.517647 0.937255 1
0.937255 0.517647 0.937255 1
0.937255 0.517647 0.937255 1
0.937255 0.517647 0.937255 1
0.937255 0.517647 0.937255 1
0.937255 0.517647 0.937255 1
0.937255 0.517647 0.937255 1
0.937255 0.517647 0.937255 1
0.937255 0.517647 0.937255 1
0.937255 0.517647 0.937255 1
0.937255 0.517647 0.937255 1
0.937255 0.517647 0.937255 1
0.937255 0.517647 0.937255 1
0.937255 0.517647 0.937255 1
0.937255 0.517647 0.937255 1
0.937255 0.517647 0.937255 1
0.937255 0.517647 0.937255 1
0.937255 0.517647 0.937255 1
0.937255 0.517647 0.937255 1
0.937255 0.517647 0.937255 1
0.937255 0.517647 0.937255 1
0.937255 0.517647 0.937255 1
0.937255 0.517647 0.937255 1
0.937255 0.517647 0.937255 1
0.937255 0.517647 0.937255 1
0.937255 0.517647 0.937255 1
0.937255 0.517647 0.937255 1
0.937255 0.517647 0.937255 1
0.937255 0.517647 0.937255 1
0.937255 0.517647 0.937255 1
0.937255 0.517647 0.937255 1
0.937255 0.517647 0.937255 1
0.937255 0.517647 0.937255 1
0.937255 0.517647 0.937255 1
0.937255 0.517647 0.937255 1
0.937255 0.517647 0.937255 1
0.937255 0.517647 0.937255 1
0.937255 0.517647 0.937255 1
0.937255 0.517647 0.937255 1
0.937255 0.517647 0.937255 1
0.937255 0.517647 0.937255 1
0.937255 0.517647 0.937255 1
0.937255 0.517647 0.937255 1
0.937255 0.517647 0.937255 1
0.937255 0.517647 0.937255 1
0.937255 0.517647 0.937255 1
0.937255 0.517647 0.937255 1
0.937255 0.517647 0.937255 1
0.937255 0.517647 0.937255 1
0.937255 0.517647 0.937255 1
0.937255 0.517647 0.937255 1
0.937255 0.517647 0.937255 1
0.937255 0.517647 0.937255 1
0.937255 0.517647 0.937255 1
0.937255 0.517647 0.937255 1
0.937255 0.517647 0.937255 1
0.937255 0.517647 0.937255 1
0.937255 0.517647 0.937255 1
0.937255 0.517647 0.937255 1
0.937255 0.517647 0.937255 1
0.937255 0.517647 0.937255 1
0.937255 0.517647 0.937255 1
0.937255 0.517647 0.937255 1
0.937255 0.517647 0.937255 1
0.937255 0.517647 0.937255 1
0.937255 0.517647 0.937255 1
0.937255 0.517647 0.937255 1
0.937255 0.517647 0.937255 1
0.937255 0.517647 0.937255 1
0.937255 0.517647 0.937255 1
0.937255 0.517647 0.937255 1
0.937255 0.517647 0.937255 1
0.937255 0.517647 0.937255 1
0.937255 0.517647 0.937255 1
0.937255 0.517647 0.937255 1
0.937255 0.517647 0.937255 1
0.937255 0.517647 0.937255 1
0.937255 0.517647 0.937255 1
0.937255 0.517647 0.937255 1
0.937255 0.517647 0.937255 1
0.937255 0.517647 0.937255 1
0.937255 0.517647 0.937255 1
0.937255 0.517647 0.937255 1
0.937255 0.517647 0.937255 1
0.937255 0.517647 0.937255 1
0.937255 0.517647 0.937255 1
0.937255 0.517647 0.937255 1
0.937255 0.517647 0.937255 1
0.937255 0.517647 0.937255 1
0.937255 0.517647 0.937255 1
0.937255 0.517647 0.937255 1
0.937255 0.517647 0.937255 1
0.937255 0.517647 0.937255 1
0.937255 0.517647 0.937255 1
0.937255 0.517647 0.937255 1
0.937255 0.517647 0.937255 1
0.937255 0.517647 0.937255 1
0.937255 0.517647 0.937255 1
0.937255 0.517647 0.937255 1
0.937255 0.517647 0.937255 1
0.937255 0.517647 0.937255 1
0.937255 0.517647 0.937255 1
0.937255 0.517647 0.937255 1
0.937255 0.517647 0.937255 1
0.937255 0.517647 0.937255 1
0.937255 0.517647 0.937255 1
0.937255 0.517647 0.937255 1
0.937255 0.517647 0.937255 1
0.937255 0.517647 0.937255 1
0.937255 0.517647 0.937255 1
0.937255 0.517647 0.937255 1
0.937255 0.517647 0.937255 1
0.937255 0.517647 0.937255 1
0.937255 0.517647 0.937255 1
0.937255 0.517647 0.937255 1
0.937255 0.517647 0.937255 1
0.937255 0.517647 0.937255 1
0.937255 0.517647 0.937255 1
0.937255 0.517647 0.937255 1
0.937255 0.517647 0.937255 1
0.937255 0.517647 0.937255 1
0.937255 0.517647 0.937255 1
0.937255 0.517647 0.937255 1
0.937255 0.517647 0.937255 1
0.937255 0.517647 0.937255 1
0.937255 0.517647 0.937255 1
0.937255 0.517647 0.937255 1
0.937255 0.517647 0.937255 1
0.937255 0.517647 0.937255 1
0.937255 0.517647 0.937255 1
0.937255 0.517647 0.937255 1
0.937255 0.517647 0.937255 1
0.937255 0.517647 0.937255 1
0.937255 0.517647 0.937255 1
0.937255 0.517647 0.937255 1
0.937255 0.517647 0.937255 1
0.937255 0.517647 0.937255 1
0.937255 0.517647 0.937255 1
0.937255 0.517647 0.937255 1
0.937255 0.517647 0.937255 1
0.937255 0.517647 0.937255 1
0.937255 0.517647 0.937255 1
0.937255 0.517647 0.937255 1
0.937255 0.517647 0.937255 1
0.937255 0.517647 0.937255 1
0.937255 0.517647 0.937255 1
0.937255 0.517647 0.937255 1
0.937255 0.517647 0.937255 1
0.937255 0.517647 0.937255 1
0.937255 0.517647 0.937255 1
0.937255 0.517647 0.937255 1
0.937255 0.517647 0.937255 1
0.937255 0.517647 0.937255 1
0.937255 0.517647 0.937255 1
0.937255 0.517647 0.937255 1
0.937255 0.517647 0.937255 1
0.937255 0.517647 0.937255 1
0.937255 0.517647 0.937255 1
0.937255 0.517647 0.937255 1
0.937255 0.517647 0.937255 1
0.937255 0.517647 0.937255 1
0.937255 0.517647 0.937255 1
0.937255 0.517647 0.937255 1
0.937255 0.517647 0.937255 1
0.937255 0.517647 0.937255 1
0.937255 0.517647 0.937255 1
0.937255 0.517647 0.937255 1
0.937255 0.517647 0.937255 1
0.937255 0.517647 0.937255 1
0.937255 0.517647 0.937255 1
0.937255 0.517647 0.937255 1
0.937255 0.517647 0.937255 1
0.937255 0.517647 0.937255 1
0.937255 0.517647 0.937255 1
0.937255 0.517647 0.937255 1
0.937255 0.517647 0.937255 1
0.937255 0.517647 0.937255 1
0.937255 0.517647 0.937255 1
0.937255 0.517647 0.937255 1
0.937255 0.517647 0.937255 1
0.937255 0.517647 0.937255 1
0.937255 0.517647 0.937255 1
0.937255 0.517647 0.937255 1
0.937255 0.517647 0.937255 1
0.937255 0.517647 0.937255 1
0.937255 0.517647 0.937255 1
0.937255 0.517647 0.937255 1
0.937255 0.517647 0.937255 1
0.937255 0.517647 0.937255 1
0.937255 0.517647 0.937255 1
0.937255 0.517647 0.937255 1
0.937255 0.517647 0.937255 1
0.937255 0.517647 0.937255 1
0.937255 0.517647 0.937255 1
0.937255 0.517647 0.937255 1
0.937255 0.517647 0.937255 1
0.937255 0.517647 0.937255 1
0.937255 0.517647 0.937255 1
0.937255 0.517647 0.937255 1
0.937255 0.517647 0.937255 1
0.937255 0.517647 0.937255 1
0.937255 0.517647 0.937255 1
0.937255 0.517647 0.937255 1
0.937255 0.517647 0.937255 1
0.937255 0.517647 0.937255 1
0.937255 0.517647 0.937255 1
0.937255 0.517647 0.937255 1
0.937255 0.517647 0.937255 1
0.937255 0.517647 0.937255 1
0.937255 0.517647 0.937255 1
0.937255 0.517647 0.937255 1
0.937255 0.517647 0.937255 1
0.937255 0.517647 0.937255 1
0.937255 0.517647 0.937255 1
0.937255 0.517647 0.937255 1
0.937255 0.517647 0.937255 1
0.937255 0.517647 0.937255 1
0.937255 0.517647 0.937255 1
0.937255 0.517647 0.937255 1
0.937255 0.517647 0.937255 1
0.937255 0.517647 0.937255 1
0.937255 0.517647 0.937255 1
0.937255 0.517647 0.937255 1
0.937255 0.517647 0.937255 1
0.937255 0.517647 0.937255 1
0.937255 0.517647 0.937255 1
0.937255 0.517647 0.937255 1
0.937255 0.517647 0.937255 1
0.937255 0.517647 0.937255 1
0.937255 0.517647 0.937255 1
0.937255 0.517647 0.937255 1
0.937255 0.517647 0.937255 1
0.937255 0.517647 0.937255 1
0.937255 0.517647 0.937255 1
0.937255 0.517647 0.937255 1
0.937255 0.517647 0.937255 1
0.937255 0.517647 0.937255 1
0.937255 0.517647 0.937255 1
0.937255 0.517647 0.937255 1
0.937255 0.517647 0.937255 1
0.937255 0.517647 0.937255 1
0.937255 0.517647 0.937255 1
0.937255 0.517647 0.937255 1
0.937255 0.517647 0.937255 1
0.937255 0.517647 0.937255 1
0.937255 0.517647 0.937255 1
0.937255 0.517647 0.937255 1
0.937255 0.517647 0.937255 1
0.937255 0.517647 0.937255 1
0.937255 0.517647 0.937255 1
0.937255 0.517647 0.937255 1
0.937255 0.517647 0.937255 1
0.937255 0.517647 0.937255 1
0.937255 0.517647 0.937255 1
0.937255 0.517647 0.937255 1
0.937255 0.517647 0.937255 1
0.937255 0.517647 0.937255 1
0.937255 0.517647 0.937255 1
0.937255 0.517647 0.937255 1
0.937255 0.517647 0.937255 1
0.937255 0.517647 0.937255 1
0.937255 0.517647 0.937255 1
0.937255 0.517647 0.937255 1
0.937255 0.517647 0.937255 1
0.937255 0.517647 0.937255 1
0.937255 0.517647 0.937255 1
0.937255 0.517647 0.937255 1
0.937255 0.517647 0.937255 1
0.937255 0.517647 0.937255 1
0.937255 0.517647 0.937255 1
0.937255 0.517647 0.937255 1
0.937255 0.517647 0.937255 1
0.937255 0.517647 0.937255 1
0.937255 0.517647 0.937255 1
0.937255 0.517647 0.937255 1
0.937255 0.517647 0.937255 1
0.937255 0.517647 0.937255 1
0.937255 0.517647 0.937255 1
0.937255 0.517647 0.937255 1
0.937255 0.517647 0.937255 1
0.937255 0.517647 0.937255 1
0.937255 0.517647 0.937255 1
0.937255 0.517647 0.937255 1
0.937255 0.517647 0.937255 1
0.937255 0.517647 0.937255 1
0.937255 0.517647 0.937255 1
0.937255 0.517647 0.937255 1
0.937255 0.517647 0.937255 1
0.937255 0.517647 0.937255 1
0.937255 0.517647 0.937255 1
0.937255 0.517647 0.937255 1
0.937255 0.517647 0.937255 1
0.937255 0.517647 0.937255 1
0.937255 0.517647 0.937255 1
0.937255 0.517647 0.937255 1
0.937255 0.517647 0.937255 1
0.937255 0.517647 0.937255 1
0.937255 0.517647 0.937255 1
0.937255 0.517647 0.937255 1
0.937255 0.517647 0.937255 1
0.937255 0.517647 0.937255 1
0.937255 0.517647 0.937255 1
0.937255 0.517647 0.937255 1
0.937255 0.517647 0.937255 1
0.937255 0.517647 0.937255 1
0.937255 0.517647 0.937255 1
0.937255 0.517647 0.937255 1
0.937255 0.517647 0.937255 1
0.937255 0.517647 0.937255 1
0.937255 0.517647 0.937255 1