# vtk DataFile Version 3.0
Gocad TSurf to VTK
ASCII
DATASET POLYDATA
POINTS 107 float
21608200.000 4586340.000 -15.000
21608200.000 4586860.000 250.000
21607900.000 4586692.500 195.000
21608000.000 4586835.000 257.500
21608100.000 4586240.000 -60.000
21608000.000 4586140.000 -105.000
21608100.000 4586160.000 -110.000
21608025.000 4586067.500 -152.500
21607950.000 4586050.000 -152.500
21607875.000 4585995.000 -173.750
21607950.000 4585975.000 -195.000
21607875.000 4585882.500 -237.500
21607800.000 4585940.000 -195.000
21607800.000 4585790.000 -280.000
21607800.000 4586810.000 265.000
21607650.000 4586145.000 -80.000
21607900.000 4586822.500 261.250
21607900.000 4586825.000 261.250
21608000.000 4586840.000 257.500
21608100.000 4586855.000 253.750
21608200.000 4586870.000 250.000
21607650.000 4586797.500 265.000
21607675.000 4585717.500 -306.250
21607550.000 4585420.000 -460.000
21607350.000 4586555.000 150.000
21607675.000 4585605.000 -370.000
21607675.000 4585542.500 -405.000
21607550.000 4585295.000 -530.000
21607425.000 4585047.500 -655.000
21607300.000 4585050.000 -640.000
21607300.000 4584800.000 -780.000
21607200.000 4584897.500 -738.750
21607200.000 4585085.000 -633.750
21607250.000 4584682.500 -853.750
21607000.000 4585092.500 -656.250
21607200.000 4584565.000 -927.500
21607150.000 4584447.500 -1001.250
21606900.000 4585190.000 -615.000
21607100.000 4584330.000 -1075.000
21607000.000 4585155.000 -621.250
21607050.000 4585975.000 -175.000
21606700.000 4586700.000 295.000
21606950.000 4586730.000 280.000
21606675.000 4585550.000 -377.500
21606175.000 4586647.500 325.000
21606775.000 4585070.000 -635.000
21606925.000 4584425.000 -980.000
21606225.000 4586270.000 97.500
21606400.000 4584710.000 -695.000
21606575.000 4584615.000 -790.000
21605700.000 4586575.000 327.500
21605950.000 4585605.000 -175.000
21605550.000 4586547.500 323.750
21606275.000 4584677.500 -692.500
21605400.000 4584520.000 -585.000
21606425.000 4583995.000 -1030.000
21606600.000 4583800.000 -1145.000
21606075.000 4584385.000 -800.000
21606400.000 4583605.000 -1207.500
21606300.000 4583507.500 -1238.750
21606500.000 4583702.500 -1176.250
21606200.000 4583410.000 -1270.000
21606000.000 4583687.500 -1098.750
21606125.000 4583317.500 -1276.250
21605600.000 4584242.500 -756.250
21606050.000 4583225.000 -1282.500
21605900.000 4583040.000 -1295.000
21605975.000 4583132.500 -1288.750
21605700.000 4583385.000 -1107.500
21605325.000 4584495.000 -575.000
21605850.000 4582965.000 -1327.500
21605800.000 4582890.000 -1360.000
21605300.000 4584075.000 -732.500
21605750.000 4582815.000 -1392.500
21605700.000 4582740.000 -1425.000
21605100.000 4584420.000 -545.000
21605250.000 4584730.000 -460.000
21604800.000 4585360.000 -85.000
21604825.000 4585612.500 12.500
21604900.000 4586370.000 305.000
21604500.000 4586160.000 295.000
21604600.000 4586212.500 297.500
21604500.000 4586170.000 295.000
21604600.000 4586220.000 297.500
21604700.000 4586270.000 300.000
21604800.000 4586320.000 302.500
21605400.000 4585520.000 -132.500
21605025.000 4586407.500 308.750
21605150.000 4586445.000 312.500
21605275.000 4586482.500 316.250
21605400.000 4586520.000 320.000
21606725.000 4583932.500 -1127.500
21606850.000 4584065.000 -1110.000
21606975.000 4584197.500 -1092.500
21605700.000 4586580.000 327.500
21605850.000 4586610.000 331.250
21606000.000 4586640.000 335.000
21606175.000 4586655.000 325.000
21606350.000 4586675.000 315.000
21606525.000 4586692.500 305.000
21606700.000 4586710.000 295.000
21606825.000 4586722.500 287.500
21606950.000 4586735.000 280.000
21607075.000 4586747.500 272.500
21607200.000 4586760.000 265.000
21607350.000 4586772.500 265.000
21607500.000 4586785.000 265.000

POLYGONS 149 596
3 71 68 72
3 9 8 5
3 84 83 81
3 78 77 76
3 82 80 81
3 17 14 16
3 95 94 50
3 39 37 34
3 54 76 69
3 5 4 2
3 4 6 0
3 64 66 67
3 43 45 37
3 29 32 31
3 85 84 81
3 39 34 32
3 68 71 70
3 54 69 68
3 83 82 81
3 76 79 78
3 80 77 78
3 89 88 86
3 2 14 12
3 9 12 11
3 96 95 50
3 75 72 69
3 26 23 27
3 12 9 5
3 45 49 46
3 54 64 57
3 46 92 93
3 49 48 56
3 29 28 23
3 48 47 50
3 54 66 64
3 47 48 45
3 75 74 72
3 54 57 53
3 22 13 12
3 86 54 51
3 51 48 50
3 73 71 72
3 55 53 57
3 40 42 41
3 97 96 44
3 37 38 36
3 21 106 24
3 25 22 23
3 78 79 81
3 10 9 11
3 105 104 24
3 7 6 5
3 34 37 36
3 42 101 41
3 31 32 34
3 52 90 51
3 90 89 86
3 6 4 5
3 21 15 14
3 55 56 48
3 55 58 60
3 15 21 24
3 29 104 40
3 17 16 3
3 47 45 43
3 66 54 68
3 67 65 64
3 8 9 10
3 15 22 12
3 4 0 2
3 77 75 76
3 48 49 45
3 34 36 35
3 49 91 46
3 79 54 86
3 15 12 14
3 102 101 42
3 16 2 3
3 51 54 53
3 57 62 61
3 45 46 37
3 19 1 20
3 62 65 63
3 87 79 86
3 22 25 13
3 41 99 44
3 47 43 44
3 81 80 78
3 43 41 44
3 25 23 26
3 7 8 10
3 1 3 2
3 0 1 2
3 41 37 40
3 8 7 5
3 24 29 23
3 55 60 56
3 30 31 33
3 23 15 24
3 41 100 99
3 11 12 13
3 31 30 29
3 28 29 30
3 66 68 70
3 50 94 52
3 104 103 42
3 22 15 23
3 37 41 43
3 33 31 34
3 103 102 42
3 57 64 62
3 57 61 59
3 32 29 40
3 1 19 3
3 86 51 90
3 72 74 73
3 68 69 72
3 101 100 41
3 53 55 48
3 47 44 50
3 88 87 86
3 98 97 44
3 54 79 76
3 58 55 57
3 37 39 40
3 28 27 23
3 59 58 57
3 49 56 91
3 75 69 76
3 46 38 37
3 105 24 106
3 46 93 38
3 79 85 81
3 91 92 46
3 53 48 51
3 16 14 2
3 44 96 50
3 17 3 18
3 25 26 13
3 35 33 34
3 39 32 40
3 24 104 29
3 2 12 5
3 99 98 44
3 50 52 51
3 61 62 63
3 19 18 3
3 104 42 40
3 65 62 64

POINT_DATA 107
COLOR_SCALARS GocadColor 4
0.0930037 0.0930037 0.439216 1
0.0930037 0.0930037 0.439216 1
0.0930037 0.0930037 0.439216 1
0.0930037 0.0930037 0.439216 1
0.0930037 0.0930037 0.439216 1
0.0930037 0.0930037 0.439216 1
0.0930037 0.0930037 0.439216 1
0.0930037 0.0930037 0.439216 1
0.0930037 0.0930037 0.439216 1
0.0930037 0.0930037 0.439216 1
0.0930037 0.0930037 0.439216 1
0.0930037 0.0930037 0.439216 1
0.0930037 0.0930037 0.439216 1
0.0930037 0.0930037 0.439216 1
0.0930037 0.0930037 0.439216 1
0.0930037 0.0930037 0.439216 1
0.0930037 0.0930037 0.439216 1
0.0930037 0.0930037 0.439216 1
0.0930037 0.0930037 0.439216 1
0.0930037 0.0930037 0.439216 1
0.0930037 0.0930037 0.439216 1
0.0930037 0.0930037 0.439216 1
0.0930037 0.0930037 0.439216 1
0.0930037 0.0930037 0.439216 1
0.0930037 0.0930037 0.439216 1
0.0930037 0.0930037 0.439216 1
0.0930037 0.0930037 0.439216 1
0.0930037 0.0930037 0.439216 1
0.0930037 0.0930037 0.439216 1
0.0930037 0.0930037 0.439216 1
0.0930037 0.0930037 0.439216 1
0.0930037 0.0930037 0.439216 1
0.0930037 0.0930037 0.439216 1
0.0930037 0.0930037 0.439216 1
0.0930037 0.0930037 0.439216 1
0.0930037 0.0930037 0.439216 1
0.0930037 0.0930037 0.439216 1
0.0930037 0.0930037 0.439216 1
0.0930037 0.0930037 0.439216 1
0.0930037 0.0930037 0.439216 1
0.0930037 0.0930037 0.439216 1
0.0930037 0.0930037 0.439216 1
0.0930037 0.0930037 0.439216 1
0.0930037 0.0930037 0.439216 1
0.0930037 0.0930037 0.439216 1
0.0930037 0.0930037 0.439216 1
0.0930037 0.0930037 0.439216 1
0.0930037 0.0930037 0.439216 1
0.0930037 0.0930037 0.439216 1
0.0930037 0.0930037 0.439216 1
0.0930037 0.0930037 0.439216 1
0.0930037 0.0930037 0.439216 1
0.0930037 0.0930037 0.439216 1
0.0930037 0.0930037 0.439216 1
0.0930037 0.0930037 0.439216 1
0.0930037 0.0930037 0.439216 1
0.0930037 0.0930037 0.439216 1
0.0930037 0.0930037 0.439216 1
0.0930037 0.0930037 0.439216 1
0.0930037 0.0930037 0.439216 1
0.0930037 0.0930037 0.439216 1
0.0930037 0.0930037 0.439216 1
0.0930037 0.0930037 0.439216 1
0.0930037 0.0930037 0.439216 1
0.0930037 0.0930037 0.439216 1
0.0930037 0.0930037 0.439216 1
0.0930037 0.0930037 0.439216 1
0.0930037 0.0930037 0.439216 1
0.0930037 0.0930037 0.439216 1
0.0930037 0.0930037 0.439216 1
0.0930037 0.0930037 0.439216 1
0.0930037 0.0930037 0.439216 1
0.0930037 0.0930037 0.439216 1
0.0930037 0.0930037 0.439216 1
0.0930037 0.0930037 0.439216 1
0.0930037 0.0930037 0.439216 1
0.0930037 0.0930037 0.439216 1
0.0930037 0.0930037 0.439216 1
0.0930037 0.0930037 0.439216 1
0.0930037 0.0930037 0.439216 1
0.0930037 0.0930037 0.439216 1
0.0930037 0.0930037 0.439216 1
0.0930037 0.0930037 0.439216 1
0.0930037 0.0930037 0.439216 1
0.0930037 0.0930037 0.439216 1
0.0930037 0.0930037 0.439216 1
0.0930037 0.0930037 0.439216 1
0.0930037 0.0930037 0.439216 1
0.0930037 0.0930037 0.439216 1
0.0930037 0.0930037 0.439216 1
0.0930037 0.0930037 0.439216 1
0.0930037 0.0930037 0.439216 1
0.0930037 0.0930037 0.439216 1
0.0930037 0.0930037 0.439216 1
0.0930037 0.0930037 0.439216 1
0.0930037 0.0930037 0.439216 1
0.0930037 0.0930037 0.439216 1
0.0930037 0.0930037 0.439216 1
0.0930037 0.0930037 0.439216 1
0.0930037 0.0930037 0.439216 1
0.0930037 0.0930037 0.439216 1
0.0930037 0.0930037 0.439216 1
0.0930037 0.0930037 0.439216 1
0.0930037 0.0930037 0.439216 1
0.0930037 0.0930037 0.439216 1
0.0930037 0.0930037 0.439216 1
0.0930037 0.0930037 0.439216 1

