# vtk DataFile Version 3.0
Gocad TSurf to VTK
ASCII
DATASET POLYDATA
POINTS 117 float
21602125.000 4589830.000 -360.000
21602200.000 4590110.000 -250.000
21602325.000 4589947.500 -195.000
21602950.000 4590015.000 207.500
21602250.000 4589660.000 -300.000
21602000.000 4590000.000 -420.000
21602075.000 4590230.000 -345.000
21601925.000 4590147.500 -472.500
21602450.000 4590750.000 -65.000
21601825.000 4590470.000 -535.000
21602950.000 4590630.000 275.000
21603050.000 4590960.000 321.250
21603161.305 4590579.289 418.688
21603160.742 4590672.070 412.613
21603164.508 4590553.672 420.335
21603167.445 4590544.773 420.890
21603173.531 4590511.234 419.854
21603206.469 4590181.703 410.535
21603221.875 4590027.547 406.176
21603224.883 4589997.422 405.324
21602825.000 4589737.500 88.750
21603241.016 4589836.031 400.760
21602425.000 4589517.500 -197.500
21602500.000 4589320.000 -180.000
21602350.000 4589715.000 -215.000
21602375.000 4589490.000 -240.000
21602800.000 4589340.000 2.500
21602900.000 4589407.500 75.000
21602600.000 4589207.500 -142.500
21602800.000 4589165.000 -30.000
21602900.000 4589220.000 35.000
21602700.000 4589095.000 -105.000
21602850.000 4589017.500 -30.000
21602800.000 4588982.500 -67.500
21602900.000 4588870.000 -30.000
21603000.000 4589100.000 67.500
21603150.000 4588815.000 82.500
21603250.000 4588895.000 166.250
21603000.000 4588732.500 -15.000
21603200.000 4588650.000 65.000
21603100.000 4588595.000 0.000
21603250.000 4588485.000 47.500
21603325.000 4588545.000 107.500
21603200.000 4588457.500 15.000
21603300.000 4588320.000 30.000
21603450.000 4588260.000 92.500
21603700.000 4588640.000 365.000
21603375.000 4588200.000 32.500
21603550.000 4588140.000 90.000
21603700.000 4588280.000 207.500
21603450.000 4588080.000 35.000
21603550.000 4587980.000 57.500
21603625.000 4588010.000 80.000
21603525.000 4587960.000 37.500
21603600.000 4587840.000 40.000
21603700.000 4587880.000 70.000
21603850.000 4588220.000 256.250
21604000.000 4588160.000 305.000
21603925.000 4588280.000 320.000
21603925.000 4588272.500 320.000
21603850.000 4588395.000 335.000
21604000.000 4588150.000 305.000
21603850.000 4588400.000 335.000
21603775.000 4588517.500 350.000
21603550.000 4588725.000 298.750
21603643.961 4588810.930 372.005
21603598.070 4588936.508 374.459
21603643.961 4588810.930 372.005
21603595.211 4588944.313 374.611
21603541.367 4589091.672 377.491
21603489.141 4589234.586 380.283
21603485.258 4589245.578 380.490
21603482.195 4589254.672 380.652
21603300.000 4589302.500 285.000
21603458.836 4589307.125 381.926
21603377.578 4589494.516 387.795
21603359.109 4589538.344 389.489
21603392.078 4589460.117 386.465
21603440.867 4589340.086 380.743
21603250.734 4589795.500 399.430
21603000.000 4591090.000 280.000
21602200.000 4590810.000 -235.000
21602825.000 4591162.500 186.250
21602250.000 4591095.000 -165.000
21602900.000 4591325.000 272.500
21602950.000 4591207.500 276.250
21602475.000 4591307.500 -1.250
21602800.000 4591560.000 265.000
21602275.000 4591237.500 -130.000
21602850.000 4591442.500 268.750
21602950.000 4591207.500 276.250
21603000.000 4591090.000 280.000
21602650.000 4591667.500 212.500
21602250.000 4591685.000 -20.000
21602650.000 4591987.500 317.500
21602350.000 4591882.500 107.500
21602604.578 4592116.961 333.399
21602225.000 4591837.500 17.500
21602125.000 4591805.000 -52.500
21602200.000 4591990.000 55.000
21602597.977 4592129.289 333.582
21602598.430 4592128.445 333.570
21602050.000 4591620.000 -160.000
21601975.000 4591435.000 -267.500
21601900.000 4591250.000 -375.000
21601975.000 4591140.000 -340.000
21601850.000 4591085.000 -438.750
21602125.000 4590920.000 -270.000
21601800.000 4590920.000 -502.500
21601750.000 4590755.000 -566.250
21601700.000 4590590.000 -630.000
21601775.000 4590442.500 -577.500
21601850.000 4590295.000 -525.000
21602598.430 4592128.445 333.570
21602597.977 4592129.289 333.582
21602600.000 4592130.000 335.000
21602604.578 4592116.961 333.399

POLYGONS 155 620
3 96 95 101
3 67 46 65
3 96 94 95
3 95 97 99
3 108 106 107
3 4 0 2
3 88 105 104
3 38 34 36
3 35 30 27
3 3 1 16
3 64 42 37
3 23 25 22
3 27 20 21
3 1 15 16
3 6 9 8
3 68 37 69
3 92 88 93
3 2 20 22
3 10 11 13
3 69 37 70
3 64 46 42
3 34 33 32
3 73 27 75
3 32 29 30
3 3 20 2
3 37 68 66
3 42 46 45
3 82 80 81
3 89 85 87
3 1 10 12
3 73 74 72
3 55 54 52
3 71 35 72
3 63 49 45
3 56 52 49
3 22 24 2
3 108 107 109
3 3 17 18
3 103 102 93
3 19 3 18
3 82 81 83
3 34 32 35
3 0 1 2
3 106 105 107
3 26 23 20
3 40 38 39
3 1 5 6
3 36 37 39
3 45 44 42
3 88 103 93
3 49 48 45
3 51 50 48
3 7 112 9
3 98 93 102
3 86 83 88
3 10 1 8
3 111 110 9
3 93 95 92
3 81 80 8
3 73 77 78
3 25 24 22
3 35 73 72
3 10 8 11
3 97 98 99
3 47 44 45
3 37 35 70
3 85 82 86
3 58 57 56
3 38 36 39
3 35 32 30
3 76 27 79
3 31 28 29
3 36 34 35
3 5 7 6
3 56 55 52
3 37 42 39
3 41 39 42
3 59 57 58
3 4 24 25
3 56 49 58
3 92 94 87
3 29 28 26
3 105 83 107
3 35 71 70
3 28 23 26
3 20 3 19
3 79 27 21
3 17 3 16
3 54 53 51
3 83 105 88
3 73 78 74
3 47 45 48
3 64 37 66
3 110 81 9
3 84 80 82
3 73 35 27
3 49 63 62
3 85 90 91
3 58 49 62
3 30 26 27
3 52 54 51
3 73 75 77
3 90 85 89
3 92 95 94
3 84 82 85
3 27 26 20
3 95 93 97
3 64 66 65
3 81 110 109
3 92 87 88
3 33 31 32
3 46 64 65
3 95 99 100
3 12 10 13
3 49 52 48
3 40 39 41
3 81 107 83
3 60 62 63
3 104 103 88
3 112 111 9
3 9 81 8
3 1 6 8
3 57 55 56
3 30 29 26
3 95 100 101
3 1 14 15
3 107 81 109
3 61 57 59
3 46 63 45
3 37 36 35
3 5 1 0
3 1 12 14
3 62 60 58
3 23 22 20
3 21 20 19
3 31 29 32
3 50 47 48
3 52 51 48
3 82 83 86
3 51 53 50
3 44 43 41
3 27 76 75
3 87 85 86
3 97 93 98
3 105 106 104
3 60 59 58
3 8 80 11
3 2 1 3
3 43 40 41
3 44 41 42
3 87 86 88
3 24 4 2
3 6 7 9
3 113 114 115
3 113 115 116

POINT_DATA 117
COLOR_SCALARS GocadColor 4
0.0930037 0.0930037 0.439216 1
0.0930037 0.0930037 0.439216 1
0.0930037 0.0930037 0.439216 1
0.0930037 0.0930037 0.439216 1
0.0930037 0.0930037 0.439216 1
0.0930037 0.0930037 0.439216 1
0.0930037 0.0930037 0.439216 1
0.0930037 0.0930037 0.439216 1
0.0930037 0.0930037 0.439216 1
0.0930037 0.0930037 0.439216 1
0.0930037 0.0930037 0.439216 1
0.0930037 0.0930037 0.439216 1
0.0930037 0.0930037 0.439216 1
0.0930037 0.0930037 0.439216 1
0.0930037 0.0930037 0.439216 1
0.0930037 0.0930037 0.439216 1
0.0930037 0.0930037 0.439216 1
0.0930037 0.0930037 0.439216 1
0.0930037 0.0930037 0.439216 1
0.0930037 0.0930037 0.439216 1
0.0930037 0.0930037 0.439216 1
0.0930037 0.0930037 0.439216 1
0.0930037 0.0930037 0.439216 1
0.0930037 0.0930037 0.439216 1
0.0930037 0.0930037 0.439216 1
0.0930037 0.0930037 0.439216 1
0.0930037 0.0930037 0.439216 1
0.0930037 0.0930037 0.439216 1
0.0930037 0.0930037 0.439216 1
0.0930037 0.0930037 0.439216 1
0.0930037 0.0930037 0.439216 1
0.0930037 0.0930037 0.439216 1
0.0930037 0.0930037 0.439216 1
0.0930037 0.0930037 0.439216 1
0.0930037 0.0930037 0.439216 1
0.0930037 0.0930037 0.439216 1
0.0930037 0.0930037 0.439216 1
0.0930037 0.0930037 0.439216 1
0.0930037 0.0930037 0.439216 1
0.0930037 0.0930037 0.439216 1
0.0930037 0.0930037 0.439216 1
0.0930037 0.0930037 0.439216 1
0.0930037 0.0930037 0.439216 1
0.0930037 0.0930037 0.439216 1
0.0930037 0.0930037 0.439216 1
0.0930037 0.0930037 0.439216 1
0.0930037 0.0930037 0.439216 1
0.0930037 0.0930037 0.439216 1
0.0930037 0.0930037 0.439216 1
0.0930037 0.0930037 0.439216 1
0.0930037 0.0930037 0.439216 1
0.0930037 0.0930037 0.439216 1
0.0930037 0.0930037 0.439216 1
0.0930037 0.0930037 0.439216 1
0.0930037 0.0930037 0.439216 1
0.0930037 0.0930037 0.439216 1
0.0930037 0.0930037 0.439216 1
0.0930037 0.0930037 0.439216 1
0.0930037 0.0930037 0.439216 1
0.0930037 0.0930037 0.439216 1
0.0930037 0.0930037 0.439216 1
0.0930037 0.0930037 0.439216 1
0.0930037 0.0930037 0.439216 1
0.0930037 0.0930037 0.439216 1
0.0930037 0.0930037 0.439216 1
0.0930037 0.0930037 0.439216 1
0.0930037 0.0930037 0.439216 1
0.0930037 0.0930037 0.439216 1
0.0930037 0.0930037 0.439216 1
0.0930037 0.0930037 0.439216 1
0.0930037 0.0930037 0.439216 1
0.0930037 0.0930037 0.439216 1
0.0930037 0.0930037 0.439216 1
0.0930037 0.0930037 0.439216 1
0.0930037 0.0930037 0.439216 1
0.0930037 0.0930037 0.439216 1
0.0930037 0.0930037 0.439216 1
0.0930037 0.0930037 0.439216 1
0.0930037 0.0930037 0.439216 1
0.0930037 0.0930037 0.439216 1
0.0930037 0.0930037 0.439216 1
0.0930037 0.0930037 0.439216 1
0.0930037 0.0930037 0.439216 1
0.0930037 0.0930037 0.439216 1
0.0930037 0.0930037 0.439216 1
0.0930037 0.0930037 0.439216 1
0.0930037 0.0930037 0.439216 1
0.0930037 0.0930037 0.439216 1
0.0930037 0.0930037 0.439216 1
0.0930037 0.0930037 0.439216 1
0.0930037 0.0930037 0.439216 1
0.0930037 0.0930037 0.439216 1
0.0930037 0.0930037 0.439216 1
0.0930037 0.0930037 0.439216 1
0.0930037 0.0930037 0.439216 1
0.0930037 0.0930037 0.439216 1
0.0930037 0.0930037 0.439216 1
0.0930037 0.0930037 0.439216 1
0.0930037 0.0930037 0.439216 1
0.0930037 0.0930037 0.439216 1
0.0930037 0.0930037 0.439216 1
0.0930037 0.0930037 0.439216 1
0.0930037 0.0930037 0.439216 1
0.0930037 0.0930037 0.439216 1
0.0930037 0.0930037 0.439216 1
0.0930037 0.0930037 0.439216 1
0.0930037 0.0930037 0.439216 1
0.0930037 0.0930037 0.439216 1
0.0930037 0.0930037 0.439216 1
0.0930037 0.0930037 0.439216 1
0.0930037 0.0930037 0.439216 1
0.0930037 0.0930037 0.439216 1
0.0930037 0.0930037 0.439216 1
0.0930037 0.0930037 0.439216 1
0.0930037 0.0930037 0.439216 1
0.0930037 0.0930037 0.439216 1
0.0930037 0.0930037 0.439216 1

