# vtk DataFile Version 3.0
Gocad TSurf to VTK
ASCII
DATASET POLYDATA
POINTS 442 float
21568000.000 4542680.000 155.000
21567750.000 4542660.000 161.250
21567900.000 4542855.000 120.000
21567700.000 4542900.000 112.500
21568350.000 4543257.500 -57.500
21567800.000 4542420.000 210.000
21567600.000 4542560.000 182.500
21568000.000 4542340.000 237.500
21568200.000 4542580.000 178.750
21567925.000 4542190.000 290.000
21568200.000 4542260.000 265.000
21567700.000 4542220.000 280.000
21567912.031 4542155.000 299.074
21567525.000 4542410.000 235.000
21567425.000 4542340.000 241.250
21567350.000 4542600.000 190.000
21567175.000 4542790.000 145.000
21567150.000 4542460.000 202.500
21567700.000 4543205.000 50.000
21567000.000 4542980.000 100.000
21567800.000 4543030.000 85.000
21567800.000 4543302.500 1.250
21568300.000 4543445.000 -75.000
21568675.000 4543595.000 -306.250
21568200.000 4543820.000 -110.000
21568325.000 4543722.500 -162.500
21567550.000 4543560.000 53.750
21568000.000 4543890.000 -40.000
21567500.000 4543740.000 92.500
21568150.000 4543945.000 -75.000
21568100.000 4544070.000 -40.000
21568450.000 4544147.500 -191.250
21568300.000 4544205.000 -117.500
21568575.000 4544185.000 -233.750
21568550.000 4544280.000 -202.500
21568650.000 4543760.000 -292.500
21569000.000 4544225.000 -646.250
21568450.000 4543625.000 -215.000
21568900.000 4543960.000 -537.500
21569350.000 4543720.000 -760.000
21568850.000 4543352.500 -316.250
21569250.000 4544405.000 -985.000
21569300.000 4544410.000 -985.000
21569525.000 4544242.500 -1180.000
21569200.000 4544450.000 -870.000
21569100.000 4544490.000 -755.000
21568950.000 4544485.000 -601.250
21568650.000 4544475.000 -293.750
21569125.000 4544547.500 -716.250
21569150.000 4544605.000 -677.500
21569175.000 4544662.500 -638.750
21569200.000 4544710.000 -600.000
21569200.000 4544720.000 -600.000
21569000.000 4544800.000 -320.000
21568750.000 4544635.000 -230.000
21569050.000 4544780.000 -390.000
21568425.000 4544552.500 -66.250
21568200.000 4544800.000 155.000
21568275.000 4544717.500 81.250
21568825.000 4544905.000 -183.750
21568475.000 4545115.000 88.750
21569100.000 4544930.000 -327.500
21569200.000 4545060.000 -335.000
21569150.000 4544995.000 -331.250
21568450.000 4545332.500 158.750
21568000.000 4545290.000 350.000
21569400.000 4545320.000 -460.000
21569100.000 4545845.000 -202.500
21569500.000 4545450.000 -522.500
21569600.000 4545580.000 -585.000
21569525.000 4545690.000 -530.000
21569300.000 4546020.000 -365.000
21569750.000 4545745.000 -662.500
21569750.000 4545745.000 -662.500
21569825.000 4545827.500 -701.250
21569900.000 4545910.000 -740.000
21569850.000 4546057.500 -611.250
21569500.000 4546260.000 -295.000
21569975.000 4546032.500 -728.750
21569800.000 4546205.000 -482.500
21569975.000 4546032.500 -728.750
21570050.000 4546155.000 -717.500
21570125.000 4546277.500 -706.250
21569600.000 4546380.000 -260.000
21570200.000 4546400.000 -695.000
21569300.000 4546300.000 -197.500
21569375.000 4546715.000 -15.000
21569000.000 4546360.000 -70.000
21569675.000 4546655.000 -161.250
21569625.000 4546965.000 -33.750
21569950.000 4546612.500 -293.750
21570575.000 4546812.500 -548.750
21570700.000 4546950.000 -500.000
21569600.000 4547120.000 30.000
21570550.000 4547110.000 -410.000
21569725.000 4547237.500 -12.500
21570700.000 4547087.500 -497.500
21570700.000 4547225.000 -495.000
21570700.000 4547362.500 -492.500
21570700.000 4547500.000 -490.000
21570000.000 4547707.500 -163.750
21570450.000 4547640.000 -426.250
21570200.000 4547780.000 -362.500
21570450.000 4547640.000 -426.250
21569900.000 4547825.000 -187.500
21569950.000 4547920.000 -298.750
21569700.000 4547752.500 -47.500
21569700.000 4547855.000 -110.000
21569650.000 4547385.000 22.500
21569225.000 4547585.000 101.250
21569250.000 4547820.000 35.000
21569475.000 4547275.000 53.750
21569625.000 4547252.500 26.250
21568950.000 4547490.000 180.000
21568925.000 4547075.000 168.750
21569025.000 4547615.000 152.500
21568750.000 4547387.500 232.500
21568650.000 4547682.500 227.500
21568300.000 4547330.000 320.000
21568650.000 4547940.000 190.000
21568875.000 4548137.500 95.000
21567850.000 4547670.000 292.500
21567600.000 4547570.000 318.750
21568150.000 4548155.000 202.500
21567600.000 4547990.000 225.000
21568400.000 4548115.000 197.500
21568700.000 4548050.000 155.000
21568175.000 4548277.500 186.250
21567875.000 4548360.000 175.000
21568800.000 4548270.000 85.000
21568300.000 4548445.000 158.750
21569550.000 4547980.000 -145.000
21569700.000 4548060.000 -235.000
21569800.000 4547942.500 -211.250
21569525.000 4548165.000 -193.750
21568950.000 4548427.500 -31.250
21569725.000 4548115.000 -270.000
21569750.000 4548170.000 -305.000
21569725.000 4548115.000 -270.000
21569775.000 4548225.000 -340.000
21569050.000 4548600.000 -83.750
21569800.000 4548280.000 -375.000
21569400.000 4548630.000 -195.000
21569150.000 4548840.000 -111.250
21569800.000 4548405.000 -361.250
21569800.000 4548655.000 -333.750
21569950.000 4548357.500 -420.000
21570250.000 4548512.500 -510.000
21570250.000 4548512.500 -510.000
21570400.000 4548590.000 -555.000
21569800.000 4548780.000 -320.000
21569600.000 4548705.000 -257.500
21569200.000 4548960.000 -125.000
21568850.000 4548937.500 -36.250
21568800.000 4549090.000 -25.000
21568950.000 4548632.500 -58.750
21568700.000 4548835.000 50.000
21568500.000 4548535.000 136.250
21568750.000 4548962.500 12.500
21568675.000 4548982.500 33.750
21568600.000 4549000.000 33.750
21568550.000 4548875.000 92.500
21568400.000 4548910.000 92.500
21568425.000 4548767.500 151.250
21568200.000 4548820.000 151.250
21568275.000 4548595.000 200.000
21568000.000 4548730.000 210.000
21568050.000 4548647.500 200.000
21568150.000 4548482.500 180.000
21567900.000 4548620.000 182.500
21567775.000 4548715.000 182.500
21567550.000 4548700.000 155.000
21567725.000 4548727.500 175.000
21567450.000 4548725.000 140.000
21567325.000 4548685.000 127.500
21567175.000 4548722.500 105.000
21567800.000 4548510.000 155.000
21567100.000 4548670.000 100.000
21567650.000 4548397.500 158.750
21566900.000 4548720.000 70.000
21567025.000 4548532.500 110.000
21567125.000 4548517.500 117.500
21566875.000 4548570.000 87.500
21566750.000 4548592.500 62.500
21566950.000 4548395.000 120.000
21566850.000 4548420.000 105.000
21566825.000 4548270.000 122.500
21567200.000 4548060.000 170.000
21566600.000 4548465.000 55.000
21566450.000 4548337.500 47.500
21566800.000 4548120.000 140.000
21566300.000 4548210.000 40.000
21567150.000 4547925.000 203.750
21566900.000 4547820.000 222.500
21567450.000 4547872.500 245.000
21567300.000 4547755.000 265.000
21567600.000 4547710.000 287.500
21567100.000 4547790.000 237.500
21567050.000 4547655.000 271.250
21566650.000 4547715.000 203.750
21566600.000 4547580.000 225.000
21566700.000 4547850.000 182.500
21566600.000 4547865.000 167.500
21566700.000 4547992.500 153.750
21566500.000 4547737.500 181.250
21566350.000 4547910.000 117.500
21566400.000 4547610.000 195.000
21566375.000 4547760.000 156.250
21566500.000 4547475.000 232.500
21566600.000 4547340.000 270.000
21566700.000 4547325.000 285.000
21567100.000 4547375.000 301.250
21566700.000 4547205.000 307.500
21566750.000 4547197.500 315.000
21566800.000 4547070.000 345.000
21566850.000 4547182.500 335.000
21566825.000 4546930.000 293.750
21566850.000 4546790.000 242.500
21566900.000 4546775.000 230.000
21567150.000 4546725.000 215.000
21566875.000 4546650.000 191.250
21566900.000 4546642.500 185.000
21566900.000 4546510.000 140.000
21567125.000 4546315.000 163.750
21567600.000 4546645.000 200.000
21566900.000 4546360.000 163.750
21566900.000 4546210.000 187.500
21566975.000 4546045.000 211.250
21567575.000 4545970.000 211.250
21566900.000 4546060.000 211.250
21566900.000 4545910.000 235.000
21566950.000 4545797.500 298.750
21567400.000 4545635.000 362.500
21567000.000 4545685.000 362.500
21567600.000 4545595.000 335.000
21568375.000 4545605.000 162.500
21567250.000 4545547.500 426.250
21567100.000 4545460.000 490.000
21567050.000 4545572.500 426.250
21567125.000 4545292.500 496.250
21567425.000 4545232.500 455.000
21567050.000 4545290.000 493.750
21567150.000 4545125.000 502.500
21567000.000 4545120.000 497.500
21567350.000 4545085.000 475.000
21567500.000 4545085.000 440.000
21567175.000 4544957.500 508.750
21567275.000 4544937.500 495.000
21566950.000 4544950.000 501.250
21567200.000 4544790.000 515.000
21566900.000 4544780.000 505.000
21567500.000 4544790.000 445.000
21567250.000 4544617.500 428.750
21567500.000 4544937.500 442.500
21567850.000 4544915.000 350.000
21567650.000 4545085.000 392.500
21567625.000 4544672.500 341.250
21567850.000 4544672.500 270.000
21567475.000 4544617.500 376.250
21567450.000 4544445.000 307.500
21567300.000 4544445.000 342.500
21567100.000 4544380.000 362.500
21566925.000 4544577.500 431.250
21567050.000 4544175.000 286.250
21567400.000 4544100.000 170.000
21566950.000 4544375.000 357.500
21566975.000 4544172.500 283.750
21567000.000 4543970.000 210.000
21567150.000 4543822.500 161.250
21567450.000 4543920.000 131.250
21567000.000 4543722.500 182.500
21566900.000 4543652.500 188.750
21567300.000 4543675.000 112.500
21567000.000 4543475.000 155.000
21567600.000 4544030.000 100.000
21567450.000 4543527.500 63.750
21567000.000 4543227.500 127.500
21566800.000 4543335.000 167.500
21566700.000 4543017.500 146.250
21566600.000 4542700.000 125.000
21566875.000 4542580.000 163.750
21568050.000 4544195.000 -5.000
21567950.000 4544437.500 110.000
21568100.000 4544560.000 92.500
21568150.000 4544922.500 203.750
21567900.000 4545040.000 350.000
21567575.000 4545232.500 413.750
21568600.000 4545925.000 -5.000
21568000.000 4546290.000 30.000
21568350.000 4546495.000 77.500
21568000.000 4546702.500 202.500
21568400.000 4547172.500 271.250
21567450.000 4547062.500 305.000
21568150.000 4544262.500 -43.750
21566325.000 4548060.000 78.750
21567350.000 4548172.500 166.250
21567700.000 4548250.000 190.000
21567750.000 4548380.000 172.500
[...]
POINT_DATA 442
COLOR_SCALARS GocadColor 4
1 0.74902 0.795026 1
1 0.74902 0.795026 1
1 0.74902 0.795026 1
1 0.74902 0.795026 1
1 0.74902 0.795026 1
1 0.74902 0.795026 1
1 0.74902 0.795026 1
1 0.74902 0.795026 1
1 0.74902 0.795026 1
1 0.74902 0.795026 1
1 0.74902 0.795026 1
1 0.74902 0.795026 1
1 0.74902 0.795026 1
1 0.74902 0.795026 1
1 0.74902 0.795026 1
1 0.74902 0.795026 1
1 0.74902 0.795026 1
1 0.74902 0.795026 1
1 0.74902 0.795026 1
1 0.74902 0.795026 1
1 0.74902 0.795026 1
1 0.74902 0.795026 1
1 0.74902 0.795026 1
1 0.74902 0.795026 1
1 0.74902 0.795026 1
1 0.74902 0.795026 1
1 0.74902 0.795026 1
1 0.74902 0.795026 1
1 0.74902 0.795026 1
1 0.74902 0.795026 1
1 0.74902 0.795026 1
1 0.74902 0.795026 1
1 0.74902 0.795026 1
1 0.74902 0.795026 1
1 0.74902 0.795026 1
1 0.74902 0.795026 1
1 0.74902 0.795026 1
1 0.74902 0.795026 1
1 0.74902 0.795026 1
1 0.74902 0.795026 1
1 0.74902 0.795026 1
1 0.74902 0.795026 1
1 0.74902 0.795026 1
1 0.74902 0.795026 1
1 0.74902 0.795026 1
1 0.74902 0.795026 1
1 0.74902 0.795026 1
1 0.74902 0.795026 1
1 0.74902 0.795026 1
1 0.74902 0.795026 1
1 0.74902 0.795026 1
1 0.74902 0.795026 1
1 0.74902 0.795026 1
1 0.74902 0.795026 1
1 0.74902 0.795026 1
1 0.74902 0.795026 1
1 0.74902 0.795026 1
1 0.74902 0.795026 1
1 0.74902 0.795026 1
1 0.74902 0.795026 1
1 0.74902 0.795026 1
1 0.74902 0.795026 1
1 0.74902 0.795026 1
1 0.74902 0.795026 1
1 0.74902 0.795026 1
1 0.74902 0.795026 1
1 0.74902 0.795026 1
1 0.74902 0.795026 1
1 0.74902 0.795026 1
1 0.74902 0.795026 1
1 0.74902 0.795026 1
1 0.74902 0.795026 1
1 0.74902 0.795026 1
1 0.74902 0.795026 1
1 0.74902 0.795026 1
1 0.74902 0.795026 1
1 0.74902 0.795026 1
1 0.74902 0.795026 1
1 0.74902 0.795026 1
1 0.74902 0.795026 1
1 0.74902 0.795026 1
1 0.74902 0.795026 1
1 0.74902 0.795026 1
1 0.74902 0.795026 1
1 0.74902 0.795026 1
1 0.74902 0.795026 1
1 0.74902 0.795026 1
1 0.74902 0.795026 1
1 0.74902 0.795026 1
1 0.74902 0.795026 1
1 0.74902 0.795026 1
1 0.74902 0.795026 1
1 0.74902 0.795026 1
1 0.74902 0.795026 1
1 0.74902 0.795026 1
1 0.74902 0.795026 1
1 0.74902 0.795026 1
1 0.74902 0.795026 1
1 0.74902 0.795026 1
1 0.74902 0.795026 1
1 0.74902 0.795026 1
1 0.74902 0.795026 1
1 0.74902 0.795026 1
1 0.74902 0.795026 1
1 0.74902 0.795026 1
1 0.74902 0.795026 1
1 0.74902 0.795026 1
1 0.74902 0.795026 1
1 0.74902 0.795026 1
1 0.74902 0.795026 1
1 0.74902 0.795026 1
1 0.74902 0.795026 1
1 0.74902 0.795026 1
1 0.74902 0.795026 1
1 0.74902 0.795026 1
1 0.74902 0.795026 1
1 0.74902 0.795026 1
1 0.74902 0.795026 1
1 0.74902 0.795026 1
1 0.74902 0.795026 1
1 0.74902 0.795026 1
1 0.74902 0.795026 1
1 0.74902 0.795026 1
1 0.74902 0.795026 1
1 0.74902 0.795026 1
1 0.74902 0.795026 1
1 0.74902 0.795026 1
1 0.74902 0.795026 1
1 0.74902 0.795026 1
1 0.74902 0.795026 1
1 0.74902 0.795026 1
1 0.74902 0.795026 1
1 0.74902 0.795026 1
1 0.74902 0.795026 1
1 0.74902 0.795026 1
1 0.74902 0.795026 1
1 0.74902 0.795026 1
1 0.74902 0.795026 1
1 0.74902 0.795026 1
1 0.74902 0.795026 1
1 0.74902 0.795026 1
1 0.74902 0.795026 1
1 0.74902 0.795026 1
1 0.74902 0.795026 1
1 0.74902 0.795026 1
1 0.74902 0.795026 1
1 0.74902 0.795026 1
1 0.74902 0.795026 1
1 0.74902 0.795026 1
1 0.74902 0.795026 1
1 0.74902 0.795026 1
1 0.74902 0.795026 1
1 0.74902 0.795026 1
1 0.74902 0.795026 1
1 0.74902 0.795026 1
1 0.74902 0.795026 1
1 0.74902 0.795026 1
1 0.74902 0.795026 1
1 0.74902 0.795026 1
1 0.74902 0.795026 1
1 0.74902 0.795026 1
1 0.74902 0.795026 1
1 0.74902 0.795026 1
1 0.74902 0.795026 1
1 0.74902 0.795026 1
1 0.74902 0.795026 1
1 0.74902 0.795026 1
1 0.74902 0.795026 1
1 0.74902 0.795026 1
1 0.74902 0.795026 1
1 0.74902 0.795026 1
1 0.74902 0.795026 1
1 0.74902 0.795026 1
1 0.74902 0.795026 1
1 0.74902 0.795026 1
1 0.74902 0.795026 1
1 0.74902 0.795026 1
1 0.74902 0.795026 1
1 0.74902 0.795026 1
1 0.74902 0.795026 1
1 0.74902 0.795026 1
1 0.74902 0.795026 1
1 0.74902 0.795026 1
1 0.74902 0.795026 1
1 0.74902 0.795026 1
1 0.74902 0.795026 1
1 0.74902 0.795026 1
1 0.74902 0.795026 1
1 0.74902 0.795026 1
1 0.74902 0.795026 1
1 0.74902 0.795026 1
1 0.74902 0.795026 1
1 0.74902 0.795026 1
1 0.74902 0.795026 1
1 0.74902 0.795026 1
1 0.74902 0.795026 1
1 0.74902 0.795026 1
1 0.74902 0.795026 1
1 0.74902 0.795026 1
1 0.74902 0.795026 1
1 0.74902 0.795026 1
1 0.74902 0.795026 1
1 0.74902 0.795026 1
1 0.74902 0.795026 1
1 0.74902 0.795026 1
1 0.74902 0.795026 1
1 0.74902 0.795026 1
1 0.74902 0.795026 1
1 0.74902 0.795026 1
1 0.74902 0.795026 1
1 0.74902 0.795026 1
1 0.74902 0.795026 1
1 0.74902 0.795026 1
1 0.74902 0.795026 1
1 0.74902 0.795026 1
1 0.74902 0.795026 1
1 0.74902 0.795026 1
1 0.74902 0.795026 1
1 0.74902 0.795026 1
1 0.74902 0.795026 1
1 0.74902 0.795026 1
1 0.74902 0.795026 1
1 0.74902 0.795026 1
1 0.74902 0.795026 1
1 0.74902 0.795026 1
1 0.74902 0.795026 1
1 0.74902 0.795026 1
1 0.74902 0.795026 1
1 0.74902 0.795026 1
1 0.74902 0.795026 1
1 0.74902 0.795026 1
1 0.74902 0.795026 1
1 0.74902 0.795026 1
1 0.74902 0.795026 1
1 0.74902 0.795026 1
1 0.74902 0.795026 1
1 0.74902 0.795026 1
1 0.74902 0.795026 1
1 0.74902 0.795026 1
1 0.74902 0.795026 1
1 0.74902 0.795026 1
1 0.74902 0.795026 1
1 0.74902 0.795026 1
1 0.74902 0.795026 1
1 0.74902 0.795026 1
1 0.74902 0.795026 1
1 0.74902 0.795026 1
1 0.74902 0.795026 1
1 0.74902 0.795026 1
1 0.74902 0.795026 1
1 0.74902 0.795026 1
1 0.74902 0.795026 1
1 0.74902 0.795026 1
1 0.74902 0.795026 1
1 0.74902 0.795026 1
1 0.74902 0.795026 1
1 0.74902 0.795026 1
1 0.74902 0.795026 1
1 0.74902 0.795026 1
1 0.74902 0.795026 1
1 0.74902 0.795026 1
1 0.74902 0.795026 1
1 0.74902 0.795026 1
1 0.74902 0.795026 1
1 0.74902 0.795026 1
1 0.74902 0.795026 1
1 0.74902 0.795026 1
1 0.74902 0.795026 1
1 0.74902 0.795026 1
1 0.74902 0.795026 1
1 0.74902 0.795026 1
1 0.74902 0.795026 1
1 0.74902 0.795026 1
1 0.74902 0.795026 1
1 0.74902 0.795026 1
1 0.74902 0.795026 1
1 0.74902 0.795026 1
1 0.74902 0.795026 1
1 0.74902 0.795026 1
1 0.74902 0.795026 1
1 0.74902 0.795026 1
1 0.74902 0.795026 1
1 0.74902 0.795026 1
1 0.74902 0.795026 1
1 0.74902 0.795026 1
1 0.74902 0.795026 1
1 0.74902 0.795026 1
1 0.74902 0.795026 1
1 0.74902 0.795026 1
1 0.74902 0.795026 1
1 0.74902 0.795026 1
1 0.74902 0.795026 1
1 0.74902 0.795026 1
1 0.74902 0.795026 1
1 0.74902 0.795026 1
1 0.74902 0.795026 1
1 0.74902 0.795026 1
1 0.74902 0.795026 1
1 0.74902 0.795026 1
1 0.74902 0.795026 1
1 0.74902 0.795026 1
1 0.74902 0.795026 1
1 0.74902 0.795026 1
1 0.74902 0.795026 1
1 0.74902 0.795026 1
1 0.74902 0.795026 1
1 0.74902 0.795026 1
1 0.74902 0.795026 1
1 0.74902 0.795026 1
1 0.74902 0.795026 1
1 0.74902 0.795026 1
1 0.74902 0.795026 1
1 0.74902 0.795026 1
1 0.74902 0.795026 1
1 0.74902 0.795026 1
1 0.74902 0.795026 1
1 0.74902 0.795026 1
1 0.74902 0.795026 1
1 0.74902 0.795026 1
1 0.74902 0.795026 1
1 0.74902 0.795026 1
1 0.74902 0.795026 1
1 0.74902 0.795026 1
1 0.74902 0.795026 1
1 0.74902 0.795026 1
1 0.74902 0.795026 1
1 0.74902 0.795026 1
1 0.74902 0.795026 1
1 0.74902 0.795026 1
1 0.74902 0.795026 1
1 0.74902 0.795026 1
1 0.74902 0.795026 1
1 0.74902 0.795026 1
1 0.74902 0.795026 1
1 0.74902 0.795026 1
1 0.74902 0.795026 1
1 0.74902 0.795026 1
1 0.74902 0.795026 1
1 0.74902 0.795026 1
1 0.74902 0.795026 1
1 0.74902 0.795026 1
1 0.74902 0.795026 1
1 0.74902 0.795026 1
1 0.74902 0.795026 1
1 0.74902 0.795026 1
1 0.74902 0.795026 1
1 0.74902 0.795026 1
1 0.74902 0.795026 1
1 0.74902 0.795026 1
1 0.74902 0.795026 1
1 0.74902 0.795026 1
1 0.74902 0.795026 1
1 0.74902 0.795026 1
1 0.74902 0.795026 1
1 0.74902 0.795026 1
1 0.74902 0.795026 1
1 0.74902 0.795026 1
1 0.74902 0.795026 1
1 0.74902 0.795026 1
1 0.74902 0.795026 1
1 0.74902 0.795026 1
1 0.74902 0.795026 1
1 0.74902 0.795026 1
1 0.74902 0.795026 1
1 0.74902 0.795026 1
1 0.74902 0.795026 1
1 0.74902 0.795026 1
1 0.74902 0.795026 1
1 0.74902 0.795026 1
1 0.74902 0.795026 1
1 0.74902 0.795026 1
1 0.74902 0.795026 1
1 0.74902 0.795026 1
1 0.74902 0.795026 1
1 0.74902 0.795026 1
1 0.74902 0.795026 1
1 0.74902 0.795026 1
1 0.74902 0.795026 1
1 0.74902 0.795026 1
1 0.74902 0.795026 1
1 0.74902 0.795026 1
1 0.74902 0.795026 1
1 0.74902 0.795026 1
1 0.74902 0.795026 1
1 0.74902 0.795026 1
1 0.74902 0.795026 1
1 0.74902 0.795026 1
1 0.74902 0.795026 1
1 0.74902 0.795026 1
1 0.74902 0.795026 1
1 0.74902 0.795026 1
1 0.74902 0.795026 1
1 0.74902 0.795026 1
1 0.74902 0.795026 1
1 0.74902 0.795026 1
1 0.74902 0.795026 1
1 0.74902 0.795026 1
1 0.74902 0.795026 1
1 0.74902 0.795026 1
1 0.74902 0.795026 1
1 0.74902 0.795026 1
1 0.74902 0.795026 1
1 0.74902 0.795026 1
1 0.74902 0.795026 1
1 0.74902 0.795026 1
1 0.74902 0.795026 1
1 0.74902 0.795026 1
1 0.74902 0.795026 1
1 0.74902 0.795026 1
1 0.74902 0.795026 1
1 0.74902 0.795026 1
1 0.74902 0.795026 1
1 0.74902 0.795026 1
1 0.74902 0.795026 1
1 0.74902 0.795026 1
1 0.74902 0.795026 1
1 0.74902 0.795026 1
1 0.74902 0.795026 1
1 0.74902 0.795026 1
1 0.74902 0.795026 1
1 0.74902 0.795026 1
1 0.74902 0.795026 1
1 0.74902 0.795026 1
1 0.74902 0.795026 1
1 0.74902 0.795026 1
1 0.74902 0.795026 1
1 0.74902 0.795026 1
1 0.74902 0.795026 1
1 0.74902 0.795026 1
1 0.74902 0.795026 1
1 0.74902 0.795026 1
1 0.74902 0.795026 1
1 0.74902 0.795026 1
1 0.74902 0.795026 1
1 0.74902 0.795026 1
1 0.74902 0.795026 1
1 0.74902 0.795026 1
1 0.74902 0.795026 1
1 0.74902 0.795026 1
1 0.74902 0.795026 1
1 0.74902 0.795026 1
1 0.74902 0.795026 1

