# vtk DataFile Version 3.0
Gocad TSurf to VTK
ASCII
DATASET POLYDATA
POINTS 801 float
21570700.000 4578685.000 -555.000
21570700.000 4578790.000 -590.000
21570725.000 4578720.000 -586.250
21570775.000 4578782.500 -617.500
21570750.000 4578650.000 -582.500
21570400.000 4578410.000 -330.000
21570475.000 4578400.000 -360.000
21570300.000 4578582.500 -363.750
21570250.000 4578535.000 -322.500
21570525.000 4578867.500 -558.750
21570200.000 4578755.000 -397.500
21570550.000 4578910.000 -558.750
21570350.000 4578945.000 -527.500
21570625.000 4578975.000 -572.500
21570400.000 4579030.000 -527.500
21570900.000 4579050.000 -620.000
21570775.000 4579170.000 -595.000
21570550.000 4579160.000 -555.000
21571000.000 4579440.000 -542.500
21570800.000 4579470.000 -535.000
21571200.000 4579410.000 -550.000
21571200.000 4579315.000 -587.500
21571075.000 4579532.500 -515.000
21570950.000 4579655.000 -480.000
21571150.000 4579590.000 -470.000
21571500.000 4579740.000 -355.000
21571475.000 4579625.000 -421.250
21571375.000 4579837.500 -323.750
21571100.000 4579770.000 -390.000
21571600.000 4579910.000 -160.000
21571625.000 4579840.000 -212.500
21571450.000 4579965.000 -177.500
21571250.000 4579935.000 -292.500
21571500.000 4580017.500 -126.250
21571400.000 4580125.000 -92.500
21571725.000 4580250.000 -55.000
21571550.000 4580280.000 -45.000
21571900.000 4580220.000 -65.000
21571700.000 4579922.500 -167.500
21571800.000 4580332.500 -41.250
21571700.000 4580445.000 -17.500
21571950.000 4580497.500 18.750
21571800.000 4580555.000 22.500
21572100.000 4580440.000 15.000
21571975.000 4580227.500 -61.250
21572025.000 4580577.500 50.000
21571950.000 4580715.000 85.000
21572300.000 4580660.000 155.000
21572175.000 4580457.500 26.250
21572175.000 4580742.500 155.000
21572250.000 4580907.500 185.000
21572100.000 4580935.000 175.000
21572400.000 4580880.000 195.000
21572375.000 4580690.000 151.250
21572300.000 4580977.500 202.500
21572200.000 4581075.000 210.000
21572450.000 4581127.500 277.500
21572300.000 4581175.000 260.000
21572552.516 4581095.039 289.460
21572480.984 4581158.484 307.710
21572573.891 4581053.883 281.943
21572600.000 4581044.273 276.541
21572600.000 4581005.000 256.250
21572619.797 4581027.758 271.589
21572450.000 4580855.000 181.250
21572600.000 4580930.000 217.500
21572450.000 4580720.000 147.500
21572500.000 4580830.000 167.500
21572350.000 4580585.000 107.500
21572325.000 4580622.500 131.250
21572375.000 4580547.500 83.750
21572525.000 4580750.000 143.750
21572325.000 4580492.500 48.750
21572400.000 4580510.000 60.000
21572250.000 4580475.000 37.500
21572175.000 4580297.500 -33.750
21572150.000 4580345.000 -17.500
21572125.000 4580392.500 -1.250
21572125.000 4580242.500 -53.750
21572200.000 4580250.000 -50.000
21572050.000 4580235.000 -57.500
21571950.000 4580090.000 -127.500
21571925.000 4580155.000 -96.250
21571800.000 4579935.000 -175.000
21571900.000 4579947.500 -182.500
21571650.000 4579770.000 -265.000
21571675.000 4579700.000 -317.500
21571600.000 4579685.000 -362.500
21571650.000 4579657.500 -366.250
21571550.000 4579712.500 -358.750
21571450.000 4579510.000 -487.500
21571250.000 4579377.500 -567.500
21571425.000 4579395.000 -553.750
21571300.000 4579345.000 -585.000
21571700.000 4579630.000 -370.000
21571400.000 4579280.000 -620.000
21571350.000 4579312.500 -602.500
21571850.000 4579270.000 -575.000
21572075.000 4579532.500 -387.500
21571700.000 4579082.500 -635.000
21572200.000 4579135.000 -570.000
21571200.000 4579030.000 -700.000
21571550.000 4578880.000 -635.000
21571200.000 4579125.000 -662.500
21571125.000 4579035.000 -680.000
21571200.000 4579220.000 -625.000
21571050.000 4579040.000 -660.000
21570975.000 4579045.000 -640.000
21570925.000 4578977.500 -640.000
21570850.000 4578775.000 -645.000
21570950.000 4578905.000 -660.000
21570775.000 4578580.000 -578.750
21570925.000 4578767.500 -672.500
21570700.000 4578580.000 -520.000
21570700.000 4578475.000 -485.000
21570550.000 4578390.000 -390.000
21570800.000 4578510.000 -575.000
21570700.000 4578370.000 -450.000
21570625.000 4578380.000 -420.000
21571325.000 4578587.500 -447.500
21571400.000 4578692.500 -541.250
21571250.000 4578482.500 -376.250
21571900.000 4578735.000 -397.500
21570600.000 4578230.000 -355.000
21570550.000 4578275.000 -348.750
21570525.000 4578230.000 -313.750
21570500.000 4578320.000 -342.500
21570500.000 4578205.000 -306.250
21570450.000 4578230.000 -272.500
21570400.000 4578180.000 -257.500
21570375.000 4578230.000 -231.250
21570450.000 4578365.000 -336.250
21570300.000 4578155.000 -208.750
21570300.000 4578230.000 -190.000
21570200.000 4578130.000 -160.000
21570100.000 4578325.000 -195.000
21570025.000 4578257.500 -177.500
21570175.000 4578400.000 -217.500
21570000.000 4578520.000 -230.000
21570050.000 4578570.000 -245.000
21570100.000 4578660.000 -315.000
21569925.000 4578740.000 -272.500
21569950.000 4578785.000 -307.500
21570100.000 4578927.500 -431.250
21569800.000 4578910.000 -300.000
21570175.000 4579022.500 -496.250
21570000.000 4579100.000 -465.000
21570250.000 4579150.000 -496.250
21570475.000 4579345.000 -537.500
21570100.000 4579270.000 -465.000
21570650.000 4579290.000 -570.000
21570525.000 4579410.000 -545.000
21570400.000 4579530.000 -520.000
21570600.000 4579500.000 -527.500
21570825.000 4579777.500 -445.000
21570700.000 4579900.000 -410.000
21571050.000 4579950.000 -310.000
21571125.000 4580032.500 -261.250
21571000.000 4580130.000 -230.000
21571300.000 4580020.000 -195.000
21571150.000 4580075.000 -212.500
21571300.000 4580232.500 -58.750
21571200.000 4580340.000 -25.000
21571375.000 4580310.000 -35.000
21571600.000 4580557.500 6.250
21571500.000 4580670.000 30.000
21571650.000 4580612.500 26.250
21571875.000 4580852.500 120.000
21571800.000 4580990.000 155.000
21572050.000 4580825.000 155.000
21571925.000 4580907.500 155.000
21571950.000 4580962.500 165.000
21572100.000 4581172.500 217.500
21572000.000 4581270.000 225.000
21572150.000 4581222.500 242.500
21572271.656 4581344.156 361.116
21572189.328 4581417.180 382.121
21572300.000 4581319.016 353.885
21572376.328 4581251.320 334.413
21572421.656 4581211.109 322.846
21572167.000 4581436.992 387.820
21572135.766 4581503.031 399.353
21572025.000 4581560.000 363.750
21572150.000 4581692.500 377.500
21571875.000 4581410.000 217.500
21571800.000 4581340.000 183.750
21571850.000 4581650.000 307.500
21571750.000 4581550.000 210.000
21572100.000 4581915.000 335.000
21571675.000 4581740.000 251.250
21572186.656 4581727.328 405.912
21572188.125 4581760.773 406.605
21572182.922 4581642.102 404.147
21572175.766 4581577.828 399.404
21572199.031 4582009.078 411.748
21572050.000 4582137.500 292.500
21572199.109 4582010.766 411.783
21571500.000 4581830.000 195.000
21571625.000 4581690.000 202.500
21572000.000 4582360.000 250.000
21571500.000 4581990.000 198.750
21572200.000 4582280.000 408.750
21572200.000 4582540.289 405.135
21572200.000 4582031.180 412.206
21572200.000 4582032.719 412.249
21572200.000 4582287.500 408.750
21572200.000 4582032.883 412.254
21572200.000 4582540.195 405.140
21572200.000 4582537.039 405.316
21572199.531 4582549.547 404.633
21571975.000 4582502.500 243.750
21572199.469 4582549.891 404.616
21571875.000 4582387.500 240.000
21571750.000 4582415.000 230.000
21571500.000 4582150.000 202.500
21571950.000 4582645.000 237.500
21571625.000 4582442.500 220.000
21572125.000 4582645.000 360.000
21572199.266 4582550.922 404.564
21572050.000 4582740.000 315.000
21571925.000 4582787.500 231.250
21572125.000 4582652.500 360.000
21572198.297 4582561.930 403.979
21572050.000 4582745.000 315.000
21571975.000 4582835.000 270.000
21572200.000 4582712.500 391.250
21572200.000 4582865.000 377.500
21572200.000 4582588.000 402.475
21572198.281 4582562.117 403.969
21571975.000 4582837.500 270.000
21572200.000 4583017.500 363.750
21571900.000 4582930.000 225.000
21572200.000 4583170.000 350.000
21571925.000 4583090.000 221.250
21571800.000 4582962.500 215.000
21572150.000 4583270.000 315.000
21571950.000 4583250.000 217.500
21572200.000 4583330.000 346.250
21572100.000 4583370.000 280.000
21572200.000 4583490.000 342.500
21572050.000 4583470.000 245.000
21571975.000 4583410.000 213.750
21572200.000 4583650.000 338.750
21572000.000 4583570.000 210.000
21572200.000 4583810.000 335.000
21572025.000 4583820.000 278.750
21571875.000 4583640.000 185.000
21572125.000 4583935.000 307.500
21572050.000 4584060.000 280.000
21572150.000 4583977.500 313.750
21572150.000 4583982.500 317.500
21572100.000 4584145.000 292.500
21572100.000 4584155.000 300.000
21572050.000 4584312.500 271.250
21571975.000 4584185.000 252.500
21572050.000 4584327.500 282.500
21572000.000 4584480.000 250.000
21571900.000 4584310.000 225.000
21572000.000 4584500.000 265.000
21571925.000 4584630.000 240.000
21571850.000 4584502.500 221.250
21571925.000 4584645.000 251.250
21571850.000 4584780.000 230.000
21571800.000 4584695.000 217.500
21571850.000 4584790.000 237.500
21571775.000 4584930.000 220.000
21571750.000 4584887.500 213.750
21571775.000 4584935.000 223.750
21571700.000 4585080.000 210.000
21571200.000 4584540.000 -25.000
21571375.000 4584482.500 37.500
21571275.000 4584367.500 8.750
21571550.000 4584425.000 100.000
21571350.000 4584195.000 42.500
21571725.000 4584367.500 162.500
21571425.000 4584022.500 76.250
21571500.000 4583850.000 110.000
21571675.000 4583840.000 166.250
21571325.000 4583907.500 56.250
21571025.000 4583480.000 37.500
21571150.000 4583965.000 2.500
21570950.000 4583680.000 -10.000
21570875.000 4583880.000 -57.500
21570600.000 4583300.000 -100.000
21570975.000 4584022.500 -51.250
21570800.000 4584080.000 -105.000
21570350.000 4583310.000 -192.500
21570100.000 4583320.000 -285.000
21570450.000 4583130.000 -175.000
21570625.000 4583035.000 -120.000
21570275.000 4583225.000 -230.000
21570350.000 4583030.000 -237.500
21570225.000 4583175.000 -261.250
21570150.000 4583057.500 -282.500
21570200.000 4582795.000 -280.000
21570475.000 4582885.000 -213.750
21569700.000 4582532.500 -335.000
[...]
POINT_DATA 801
COLOR_SCALARS GocadColor 4
0 1 0.48333 1
0 1 0.48333 1
0 1 0.48333 1
0 1 0.48333 1
0 1 0.48333 1
0 1 0.48333 1
0 1 0.48333 1
0 1 0.48333 1
0 1 0.48333 1
0 1 0.48333 1
0 1 0.48333 1
0 1 0.48333 1
0 1 0.48333 1
0 1 0.48333 1
0 1 0.48333 1
0 1 0.48333 1
0 1 0.48333 1
0 1 0.48333 1
0 1 0.48333 1
0 1 0.48333 1
0 1 0.48333 1
0 1 0.48333 1
0 1 0.48333 1
0 1 0.48333 1
0 1 0.48333 1
0 1 0.48333 1
0 1 0.48333 1
0 1 0.48333 1
0 1 0.48333 1
0 1 0.48333 1
0 1 0.48333 1
0 1 0.48333 1
0 1 0.48333 1
0 1 0.48333 1
0 1 0.48333 1
0 1 0.48333 1
0 1 0.48333 1
0 1 0.48333 1
0 1 0.48333 1
0 1 0.48333 1
0 1 0.48333 1
0 1 0.48333 1
0 1 0.48333 1
0 1 0.48333 1
0 1 0.48333 1
0 1 0.48333 1
0 1 0.48333 1
0 1 0.48333 1
0 1 0.48333 1
0 1 0.48333 1
0 1 0.48333 1
0 1 0.48333 1
0 1 0.48333 1
0 1 0.48333 1
0 1 0.48333 1
0 1 0.48333 1
0 1 0.48333 1
0 1 0.48333 1
0 1 0.48333 1
0 1 0.48333 1
0 1 0.48333 1
0 1 0.48333 1
0 1 0.48333 1
0 1 0.48333 1
0 1 0.48333 1
0 1 0.48333 1
0 1 0.48333 1
0 1 0.48333 1
0 1 0.48333 1
0 1 0.48333 1
0 1 0.48333 1
0 1 0.48333 1
0 1 0.48333 1
0 1 0.48333 1
0 1 0.48333 1
0 1 0.48333 1
0 1 0.48333 1
0 1 0.48333 1
0 1 0.48333 1
0 1 0.48333 1
0 1 0.48333 1
0 1 0.48333 1
0 1 0.48333 1
0 1 0.48333 1
0 1 0.48333 1
0 1 0.48333 1
0 1 0.48333 1
0 1 0.48333 1
0 1 0.48333 1
0 1 0.48333 1
0 1 0.48333 1
0 1 0.48333 1
0 1 0.48333 1
0 1 0.48333 1
0 1 0.48333 1
0 1 0.48333 1
0 1 0.48333 1
0 1 0.48333 1
0 1 0.48333 1
0 1 0.48333 1
0 1 0.48333 1
0 1 0.48333 1
0 1 0.48333 1
0 1 0.48333 1
0 1 0.48333 1
0 1 0.48333 1
0 1 0.48333 1
0 1 0.48333 1
0 1 0.48333 1
0 1 0.48333 1
0 1 0.48333 1
0 1 0.48333 1
0 1 0.48333 1
0 1 0.48333 1
0 1 0.48333 1
0 1 0.48333 1
0 1 0.48333 1
0 1 0.48333 1
0 1 0.48333 1
0 1 0.48333 1
0 1 0.48333 1
0 1 0.48333 1
0 1 0.48333 1
0 1 0.48333 1
0 1 0.48333 1
0 1 0.48333 1
0 1 0.48333 1
0 1 0.48333 1
0 1 0.48333 1
0 1 0.48333 1
0 1 0.48333 1
0 1 0.48333 1
0 1 0.48333 1
0 1 0.48333 1
0 1 0.48333 1
0 1 0.48333 1
0 1 0.48333 1
0 1 0.48333 1
0 1 0.48333 1
0 1 0.48333 1
0 1 0.48333 1
0 1 0.48333 1
0 1 0.48333 1
0 1 0.48333 1
0 1 0.48333 1
0 1 0.48333 1
0 1 0.48333 1
0 1 0.48333 1
0 1 0.48333 1
0 1 0.48333 1
0 1 0.48333 1
0 1 0.48333 1
0 1 0.48333 1
0 1 0.48333 1
0 1 0.48333 1
0 1 0.48333 1
0 1 0.48333 1
0 1 0.48333 1
0 1 0.48333 1
0 1 0.48333 1
0 1 0.48333 1
0 1 0.48333 1
0 1 0.48333 1
0 1 0.48333 1
0 1 0.48333 1
0 1 0.48333 1
0 1 0.48333 1
0 1 0.48333 1
0 1 0.48333 1
0 1 0.48333 1
0 1 0.48333 1
0 1 0.48333 1
0 1 0.48333 1
0 1 0.48333 1
0 1 0.48333 1
0 1 0.48333 1
0 1 0.48333 1
0 1 0.48333 1
0 1 0.48333 1
0 1 0.48333 1
0 1 0.48333 1
0 1 0.48333 1
0 1 0.48333 1
0 1 0.48333 1
0 1 0.48333 1
0 1 0.48333 1
0 1 0.48333 1
0 1 0.48333 1
0 1 0.48333 1
0 1 0.48333 1
0 1 0.48333 1
0 1 0.48333 1
0 1 0.48333 1
0 1 0.48333 1
0 1 0.48333 1
0 1 0.48333 1
0 1 0.48333 1
0 1 0.48333 1
0 1 0.48333 1
0 1 0.48333 1
0 1 0.48333 1
0 1 0.48333 1
0 1 0.48333 1
0 1 0.48333 1
0 1 0.48333 1
0 1 0.48333 1
0 1 0.48333 1
0 1 0.48333 1
0 1 0.48333 1
0 1 0.48333 1
0 1 0.48333 1
0 1 0.48333 1
0 1 0.48333 1
0 1 0.48333 1
0 1 0.48333 1
0 1 0.48333 1
0 1 0.48333 1
0 1 0.48333 1
0 1 0.48333 1
0 1 0.48333 1
0 1 0.48333 1
0 1 0.48333 1
0 1 0.48333 1
0 1 0.48333 1
0 1 0.48333 1
0 1 0.48333 1
0 1 0.48333 1
0 1 0.48333 1
0 1 0.48333 1
0 1 0.48333 1
0 1 0.48333 1
0 1 0.48333 1
0 1 0.48333 1
0 1 0.48333 1
0 1 0.48333 1
0 1 0.48333 1
0 1 0.48333 1
0 1 0.48333 1
0 1 0.48333 1
0 1 0.48333 1
0 1 0.48333 1
0 1 0.48333 1
0 1 0.48333 1
0 1 0.48333 1
0 1 0.48333 1
0 1 0.48333 1
0 1 0.48333 1
0 1 0.48333 1
0 1 0.48333 1
0 1 0.48333 1
0 1 0.48333 1
0 1 0.48333 1
0 1 0.48333 1
0 1 0.48333 1
0 1 0.48333 1
0 1 0.48333 1
0 1 0.48333 1
0 1 0.48333 1
0 1 0.48333 1
0 1 0.48333 1
0 1 0.48333 1
0 1 0.48333 1
0 1 0.48333 1
0 1 0.48333 1
0 1 0.48333 1
0 1 0.48333 1
0 1 0.48333 1
0 1 0.48333 1
0 1 0.48333 1
0 1 0.48333 1
0 1 0.48333 1
0 1 0.48333 1
0 1 0.48333 1
0 1 0.48333 1
0 1 0.48333 1
0 1 0.48333 1
0 1 0.48333 1
0 1 0.48333 1
0 1 0.48333 1
0 1 0.48333 1
0 1 0.48333 1
0 1 0.48333 1
0 1 0.48333 1
0 1 0.48333 1
0 1 0.48333 1
0 1 0.48333 1
0 1 0.48333 1
0 1 0.48333 1
0 1 0.48333 1
0 1 0.48333 1
0 1 0.48333 1
0 1 0.48333 1
0 1 0.48333 1
0 1 0.48333 1
0 1 0.48333 1
0 1 0.48333 1
0 1 0.48333 1
0 1 0.48333 1
0 1 0.48333 1
0 1 0.48333 1
0 1 0.48333 1
0 1 0.48333 1
0 1 0.48333 1
0 1 0.48333 1
0 1 0.48333 1
0 1 0.48333 1
0 1 0.48333 1
0 1 0.48333 1
0 1 0.48333 1
0 1 0.48333 1
0 1 0.48333 1
0 1 0.48333 1
0 1 0.48333 1
0 1 0.48333 1
0 1 0.48333 1
0 1 0.48333 1
0 1 0.48333 1
0 1 0.48333 1
0 1 0.48333 1
0 1 0.48333 1
0 1 0.48333 1
0 1 0.48333 1
0 1 0.48333 1
0 1 0.48333 1
0 1 0.48333 1
0 1 0.48333 1
0 1 0.48333 1
0 1 0.48333 1
0 1 0.48333 1
0 1 0.48333 1
0 1 0.48333 1
0 1 0.48333 1
0 1 0.48333 1
0 1 0.48333 1
0 1 0.48333 1
0 1 0.48333 1
0 1 0.48333 1
0 1 0.48333 1
0 1 0.48333 1
0 1 0.48333 1
0 1 0.48333 1
0 1 0.48333 1
0 1 0.48333 1
0 1 0.48333 1
0 1 0.48333 1
0 1 0.48333 1
0 1 0.48333 1
0 1 0.48333 1
0 1 0.48333 1
0 1 0.48333 1
0 1 0.48333 1
0 1 0.48333 1
0 1 0.48333 1
0 1 0.48333 1
0 1 0.48333 1
0 1 0.48333 1
0 1 0.48333 1
0 1 0.48333 1
0 1 0.48333 1
0 1 0.48333 1
0 1 0.48333 1
0 1 0.48333 1
0 1 0.48333 1
0 1 0.48333 1
0 1 0.48333 1
0 1 0.48333 1
0 1 0.48333 1
0 1 0.48333 1
0 1 0.48333 1
0 1 0.48333 1
0 1 0.48333 1
0 1 0.48333 1
0 1 0.48333 1
0 1 0.48333 1
0 1 0.48333 1
0 1 0.48333 1
0 1 0.48333 1
0 1 0.48333 1
0 1 0.48333 1
0 1 0.48333 1
0 1 0.48333 1
0 1 0.48333 1
0 1 0.48333 1
0 1 0.48333 1
0 1 0.48333 1
0 1 0.48333 1
0 1 0.48333 1
0 1 0.48333 1
0 1 0.48333 1
0 1 0.48333 1
0 1 0.48333 1
0 1 0.48333 1
0 1 0.48333 1
0 1 0.48333 1
0 1 0.48333 1
0 1 0.48333 1
0 1 0.48333 1
0 1 0.48333 1
0 1 0.48333 1
0 1 0.48333 1
0 1 0.48333 1
0 1 0.48333 1
0 1 0.48333 1
0 1 0.48333 1
0 1 0.48333 1
0 1 0.48333 1
0 1 0.48333 1
0 1 0.48333 1
0 1 0.48333 1
0 1 0.48333 1
0 1 0.48333 1
0 1 0.48333 1
0 1 0.48333 1
0 1 0.48333 1
0 1 0.48333 1
0 1 0.48333 1
0 1 0.48333 1
0 1 0.48333 1
0 1 0.48333 1
0 1 0.48333 1
0 1 0.48333 1
0 1 0.48333 1
0 1 0.48333 1
0 1 0.48333 1
0 1 0.48333 1
0 1 0.48333 1
0 1 0.48333 1
0 1 0.48333 1
0 1 0.48333 1
0 1 0.48333 1
0 1 0.48333 1
0 1 0.48333 1
0 1 0.48333 1
0 1 0.48333 1
0 1 0.48333 1
0 1 0.48333 1
0 1 0.48333 1
0 1 0.48333 1
0 1 0.48333 1
0 1 0.48333 1
0 1 0.48333 1
0 1 0.48333 1
0 1 0.48333 1
0 1 0.48333 1
0 1 0.48333 1
0 1 0.48333 1
0 1 0.48333 1
0 1 0.48333 1
0 1 0.48333 1
0 1 0.48333 1
0 1 0.48333 1
0 1 0.48333 1
0 1 0.48333 1
0 1 0.48333 1
0 1 0.48333 1
0 1 0.48333 1
0 1 0.48333 1
0 1 0.48333 1
0 1 0.48333 1
0 1 0.48333 1
0 1 0.48333 1
0 1 0.48333 1
0 1 0.48333 1
0 1 0.48333 1
0 1 0.48333 1
0 1 0.48333 1
0 1 0.48333 1
0 1 0.48333 1
0 1 0.48333 1
0 1 0.48333 1
0 1 0.48333 1
0 1 0.48333 1
0 1 0.48333 1
0 1 0.48333 1
0 1 0.48333 1
0 1 0.48333 1
0 1 0.48333 1
0 1 0.48333 1
0 1 0.48333 1
0 1 0.48333 1
0 1 0.48333 1
0 1 0.48333 1
0 1 0.48333 1
0 1 0.48333 1
0 1 0.48333 1
0 1 0.48333 1
0 1 0.48333 1
0 1 0.48333 1
0 1 0.48333 1
0 1 0.48333 1
0 1 0.48333 1
0 1 0.48333 1
0 1 0.48333 1
0 1 0.48333 1
0 1 0.48333 1
0 1 0.48333 1
0 1 0.48333 1
0 1 0.48333 1
0 1 0.48333 1
0 1 0.48333 1
0 1 0.48333 1
0 1 0.48333 1
0 1 0.48333 1
0 1 0.48333 1
0 1 0.48333 1
0 1 0.48333 1
0 1 0.48333 1
0 1 0.48333 1
0 1 0.48333 1
0 1 0.48333 1
0 1 0.48333 1
0 1 0.48333 1
0 1 0.48333 1
0 1 0.48333 1
0 1 0.48333 1
0 1 0.48333 1
0 1 0.48333 1
0 1 0.48333 1
0 1 0.48333 1
0 1 0.48333 1
0 1 0.48333 1
0 1 0.48333 1
0 1 0.48333 1
0 1 0.48333 1
0 1 0.48333 1
0 1 0.48333 1
0 1 0.48333 1
0 1 0.48333 1
0 1 0.48333 1
0 1 0.48333 1
0 1 0.48333 1
0 1 0.48333 1
0 1 0.48333 1
0 1 0.48333 1
0 1 0.48333 1
0 1 0.48333 1
0 1 0.48333 1
0 1 0.48333 1
0 1 0.48333 1
0 1 0.48333 1
0 1 0.48333 1
0 1 0.48333 1
0 1 0.48333 1
0 1 0.48333 1
0 1 0.48333 1
0 1 0.48333 1
0 1 0.48333 1
0 1 0.48333 1
0 1 0.48333 1
0 1 0.48333 1
0 1 0.48333 1
0 1 0.48333 1
0 1 0.48333 1
0 1 0.48333 1
0 1 0.48333 1
0 1 0.48333 1
0 1 0.48333 1
0 1 0.48333 1
0 1 0.48333 1
0 1 0.48333 1
0 1 0.48333 1
0 1 0.48333 1
0 1 0.48333 1
0 1 0.48333 1
0 1 0.48333 1
0 1 0.48333 1
0 1 0.48333 1
0 1 0.48333 1
0 1 0.48333 1
0 1 0.48333 1
0 1 0.48333 1
0 1 0.48333 1
0 1 0.48333 1
0 1 0.48333 1
0 1 0.48333 1
0 1 0.48333 1
0 1 0.48333 1
0 1 0.48333 1
0 1 0.48333 1
0 1 0.48333 1
0 1 0.48333 1
0 1 0.48333 1
0 1 0.48333 1
0 1 0.48333 1
0 1 0.48333 1
0 1 0.48333 1
0 1 0.48333 1
0 1 0.48333 1
0 1 0.48333 1
0 1 0.48333 1
0 1 0.48333 1
0 1 0.48333 1
0 1 0.48333 1
0 1 0.48333 1
0 1 0.48333 1
0 1 0.48333 1
0 1 0.48333 1
0 1 0.48333 1
0 1 0.48333 1
0 1 0.48333 1
0 1 0.48333 1
0 1 0.48333 1
0 1 0.48333 1
0 1 0.48333 1
0 1 0.48333 1
0 1 0.48333 1
0 1 0.48333 1
0 1 0.48333 1
0 1 0.48333 1
0 1 0.48333 1
0 1 0.48333 1
0 1 0.48333 1
0 1 0.48333 1
0 1 0.48333 1
0 1 0.48333 1
0 1 0.48333 1
0 1 0.48333 1
0 1 0.48333 1
0 1 0.48333 1
0 1 0.48333 1
0 1 0.48333 1
0 1 0.48333 1
0 1 0.48333 1
0 1 0.48333 1
0 1 0.48333 1
0 1 0.48333 1
0 1 0.48333 1
0 1 0.48333 1
0 1 0.48333 1
0 1 0.48333 1
0 1 0.48333 1
0 1 0.48333 1
0 1 0.48333 1
0 1 0.48333 1
0 1 0.48333 1
0 1 0.48333 1
0 1 0.48333 1
0 1 0.48333 1
0 1 0.48333 1
0 1 0.48333 1
0 1 0.48333 1
0 1 0.48333 1
0 1 0.48333 1
0 1 0.48333 1
0 1 0.48333 1
0 1 0.48333 1
0 1 0.48333 1
0 1 0.48333 1
0 1 0.48333 1
0 1 0.48333 1
0 1 0.48333 1
0 1 0.48333 1
0 1 0.48333 1
0 1 0.48333 1
0 1 0.48333 1
0 1 0.48333 1
0 1 0.48333 1
0 1 0.48333 1
0 1 0.48333 1
0 1 0.48333 1
0 1 0.48333 1
0 1 0.48333 1
0 1 0.48333 1
0 1 0.48333 1
0 1 0.48333 1
0 1 0.48333 1
0 1 0.48333 1
0 1 0.48333 1
0 1 0.48333 1
0 1 0.48333 1
0 1 0.48333 1
0 1 0.48333 1
0 1 0.48333 1
0 1 0.48333 1
0 1 0.48333 1
0 1 0.48333 1
0 1 0.48333 1
0 1 0.48333 1
0 1 0.48333 1
0 1 0.48333 1
0 1 0.48333 1
0 1 0.48333 1
0 1 0.48333 1
0 1 0.48333 1
0 1 0.48333 1
0 1 0.48333 1
0 1 0.48333 1
0 1 0.48333 1
0 1 0.48333 1
0 1 0.48333 1
0 1 0.48333 1
0 1 0.48333 1
0 1 0.48333 1
0 1 0.48333 1
0 1 0.48333 1
0 1 0.48333 1
0 1 0.48333 1
0 1 0.48333 1
0 1 0.48333 1
0 1 0.48333 1
0 1 0.48333 1
0 1 0.48333 1
0 1 0.48333 1
0 1 0.48333 1
0 1 0.48333 1
0 1 0.48333 1
0 1 0.48333 1
0 1 0.48333 1
0 1 0.48333 1
0 1 0.48333 1
0 1 0.48333 1
0 1 0.48333 1
0 1 0.48333 1
0 1 0.48333 1
0 1 0.48333 1
0 1 0.48333 1
0 1 0.48333 1
0 1 0.48333 1
0 1 0.48333 1
0 1 0.48333 1
0 1 0.48333 1
0 1 0.48333 1
0 1 0.48333 1
0 1 0.48333 1
0 1 0.48333 1
0 1 0.48333 1
0 1 0.48333 1
0 1 0.48333 1
0 1 0.48333 1
0 1 0.48333 1
0 1 0.48333 1
0 1 0.48333 1
0 1 0.48333 1
0 1 0.48333 1
0 1 0.48333 1
0 1 0.48333 1
0 1 0.48333 1
0 1 0.48333 1
0 1 0.48333 1
0 1 0.48333 1
0 1 0.48333 1
0 1 0.48333 1
0 1 0.48333 1
0 1 0.48333 1
0 1 0.48333 1
0 1 0.48333 1
0 1 0.48333 1
0 1 0.48333 1
0 1 0.48333 1
0 1 0.48333 1
0 1 0.48333 1
0 1 0.48333 1
0 1 0.48333 1
0 1 0.48333 1
0 1 0.48333 1
0 1 0.48333 1
0 1 0.48333 1
0 1 0.48333 1
0 1 0.48333 1
0 1 0.48333 1
0 1 0.48333 1
0 1 0.48333 1
0 1 0.48333 1
0 1 0.48333 1
0 1 0.48333 1
0 1 0.48333 1
0 1 0.48333 1
0 1 0.48333 1
0 1 0.48333 1
0 1 0.48333 1
0 1 0.48333 1
0 1 0.48333 1
0 1 0.48333 1
0 1 0.48333 1
0 1 0.48333 1
0 1 0.48333 1
0 1 0.48333 1
0 1 0.48333 1
0 1 0.48333 1
0 1 0.48333 1
0 1 0.48333 1
0 1 0.48333 1
0 1 0.48333 1
0 1 0.48333 1
0 1 0.48333 1
0 1 0.48333 1
0 1 0.48333 1
0 1 0.48333 1
0 1 0.48333 1
0 1 0.48333 1
0 1 0.48333 1
0 1 0.48333 1
0 1 0.48333 1
0 1 0.48333 1
0 1 0.48333 1
0 1 0.48333 1
0 1 0.48333 1
0 1 0.48333 1
0 1 0.48333 1
0 1 0.48333 1
0 1 0.48333 1

