# vtk DataFile Version 3.0
Gocad TSurf to VTK
ASCII
DATASET POLYDATA
POINTS 979 float
21598225.000 4569602.500 -1443.750
21598700.000 4569500.000 -1282.500
21598675.000 4569607.500 -871.250
21598862.500 4569482.500 -1125.000
21597850.000 4569780.000 -1411.250
21598600.000 4569445.000 -1631.250
21598837.500 4569397.500 -1485.000
21598075.000 4569437.500 -1743.750
21598475.000 4569335.000 -1955.625
21598400.000 4569170.000 -1882.500
21598937.500 4569268.750 -1899.375
21598737.500 4569230.000 -1995.000
21599350.000 4569265.000 -1522.500
21599100.000 4568903.750 -1976.250
21599700.000 4569230.000 -1271.250
21599712.500 4569060.000 -1566.875
21599950.000 4569320.000 -1035.625
21598925.000 4569668.750 -595.625
21600275.000 4569055.000 -1140.000
21600337.500 4569168.750 -1065.000
21600100.000 4568642.500 -1649.375
21600525.000 4568618.750 -1372.500
21599562.500 4568700.000 -1853.750
21599800.000 4568520.000 -1742.500
21600100.000 4568350.000 -1497.500
21599525.000 4568460.000 -1812.500
21599350.000 4568725.000 -1895.000
21600037.500 4567925.000 -1438.125
21599462.500 4568258.750 -1875.625
21600200.000 4568112.500 -1327.500
21600237.500 4567997.500 -1234.375
21600300.000 4568265.000 -1360.000
21600500.000 4568570.000 -1425.000
21600650.000 4568110.000 -1052.500
21601050.000 4567900.000 -752.500
21601062.500 4568222.500 -870.625
21601075.000 4568435.000 -858.750
21601125.000 4568080.000 -781.250
21601162.500 4568170.000 -795.625
21601200.000 4568057.500 -781.250
21601250.000 4568143.750 -795.625
21601375.000 4568391.250 -678.750
21601225.000 4567926.250 -766.875
21601150.000 4567971.250 -766.875
21601550.000 4567890.000 -856.250
21601412.500 4567845.000 -820.000
21601600.000 4568100.000 -895.000
21601750.000 4567925.000 -958.750
21601637.500 4568283.750 -737.500
21601775.000 4568162.500 -861.250
21601787.500 4568091.250 -925.625
21601762.500 4568233.750 -796.875
21601750.000 4568305.000 -732.500
21601662.500 4568406.250 -632.500
21601737.500 4568376.250 -668.125
21601500.000 4568410.000 -642.500
21601687.500 4568528.750 -527.500
21601400.000 4568445.000 -635.000
21601425.000 4568498.750 -591.250
21601350.000 4568460.000 -635.000
21600950.000 4568610.000 -907.500
21601500.000 4568660.000 -460.000
21601037.500 4569117.500 -853.125
21601700.000 4568590.000 -475.000
21601712.500 4568518.750 -539.375
21601700.000 4568683.750 -478.125
21601700.000 4568777.500 -481.250
21601600.000 4569000.000 -480.000
21601700.000 4568871.250 -484.375
21601575.000 4569200.000 -565.000
21601625.000 4569085.000 -485.000
21601487.500 4569327.500 -650.625
21601587.500 4569290.000 -582.500
21600675.000 4569132.500 -1028.750
21600600.000 4569650.000 -1100.000
21600625.000 4568813.750 -1162.500
21600200.000 4569620.000 -1113.750
21600700.000 4569738.750 -1100.000
21601575.000 4569502.500 -662.500
21600287.500 4569836.250 -1132.500
21600600.000 4570055.000 -1130.000
21600000.000 4569820.000 -1090.000
21599950.000 4569540.000 -1055.000
21600025.000 4569906.250 -1084.375
21599100.000 4570080.000 -670.000
21600250.000 4570125.000 -1095.000
21600412.500 4570010.000 -1150.625
21600225.000 4570317.500 -1070.000
21600600.000 4570460.000 -1160.000
21599650.000 4570220.000 -860.000
21599262.500 4570673.750 -630.000
21599125.000 4570147.500 -665.000
21599175.000 4570282.500 -655.000
21599075.000 4570153.750 -645.625
21598975.000 4570448.750 -548.125
21598700.000 4570180.000 -545.000
21598750.000 4570037.500 -555.000
21598675.000 4570077.500 -523.750
21598800.000 4569895.000 -565.000
21599300.000 4569875.000 -757.500
21599600.000 4569567.500 -888.750
21598525.000 4569722.500 -618.750
21598650.000 4569965.000 -502.500
21598662.500 4570021.250 -513.125
21598637.500 4569908.750 -491.875
21598600.000 4569965.000 -502.500
21598550.000 4569852.500 -481.250
21598325.000 4569872.500 -468.750
21598500.000 4569990.000 -495.000
21598625.000 4570021.250 -513.125
21598500.000 4570052.500 -503.750
21598375.000 4569977.500 -486.250
21598725.000 4570250.000 -536.250
21598500.000 4570240.000 -530.000
21598662.500 4570385.000 -507.500
21598225.000 4570022.500 -533.125
21598100.000 4570360.000 -655.000
21597912.500 4570255.000 -739.375
21597600.000 4570080.000 -880.000
21596775.000 4570627.500 -1225.000
21597187.500 4570353.750 -1052.500
21596500.000 4570810.000 -1340.000
21596500.000 4570655.000 -1382.500
21596662.500 4570810.000 -1259.375
21597912.500 4570641.250 -680.000
21596500.000 4570830.000 -1333.125
21596500.000 4570830.000 -1333.125
21596500.000 4570850.000 -1326.250
21596500.000 4570870.000 -1319.375
21596500.000 4570890.000 -1312.500
21596987.500 4570810.000 -1098.125
21596500.000 4570910.000 -1305.625
21597475.000 4570810.000 -856.250
21596500.000 4570930.000 -1298.750
21596500.000 4570950.000 -1291.875
21596500.000 4570970.000 -1285.000
21597350.000 4570948.750 -837.500
21597875.000 4570697.500 -685.000
21596537.500 4571048.750 -1206.250
21597050.000 4571041.250 -932.500
21596525.000 4571022.500 -1232.500
21596537.500 4571048.750 -1206.250
21596562.500 4571101.250 -1153.750
21596575.000 4571127.500 -1127.500
21596587.500 4571153.750 -1101.250
21596600.000 4571180.000 -1075.000
21597450.000 4571320.000 -516.250
21597737.500 4571003.750 -610.625
21596687.500 4571212.500 -1001.875
21597125.000 4571375.000 -636.250
21596512.500 4571372.500 -733.750
21596500.000 4571400.000 -685.000
21596925.000 4571515.000 -490.000
21597362.500 4571497.500 -547.500
21596425.000 4571490.000 -611.875
21596675.000 4571565.000 -490.000
21596375.000 4571550.000 -563.125
21596325.000 4571610.000 -514.375
21596300.000 4571640.000 -490.000
21597600.000 4571877.500 -887.500
21597737.500 4571842.500 -892.500
21597200.000 4571832.500 -762.500
21596262.500 4571670.000 -475.000
21597812.500 4571967.500 -965.625
21598950.000 4572222.500 -1262.500
21596600.000 4571765.000 -575.000
21597900.000 4572440.000 -1075.000
21596275.000 4571660.000 -480.000
21596212.500 4571710.000 -455.000
21596200.000 4571720.000 -450.000
21596350.000 4571835.000 -506.875
21598000.000 4572546.250 -1111.250
21596012.500 4571863.750 -403.125
21595937.500 4571921.250 -384.375
21597250.000 4572525.000 -848.125
21595900.000 4571950.000 -375.000
21597400.000 4572640.000 -905.000
21598600.000 4573183.750 -1328.750
21598850.000 4572960.000 -1357.500
21598700.000 4573290.000 -1365.000
21598725.000 4573235.000 -1363.750
21598950.000 4573140.000 -1375.000
21599200.000 4573490.000 -1475.000
21599200.000 4573427.500 -1463.750
21599200.000 4573240.000 -1430.000
21599312.500 4573351.250 -1424.375
21599500.000 4573592.500 -1423.125
21599500.000 4573457.500 -1399.375
21599500.000 4573660.000 -1435.000
21599675.000 4573597.500 -1338.750
21600200.000 4573970.000 -1170.000
21600200.000 4573900.000 -1155.000
21599937.500 4573503.750 -1194.375
21600575.000 4573913.750 -903.750
21601000.000 4574380.000 -585.000
21601025.000 4574310.000 -569.375
21601100.000 4574100.000 -522.500
21601200.000 4574460.000 -415.000
21601225.000 4574391.250 -408.750
21601200.000 4574220.000 -431.875
21601312.500 4574452.500 -360.625
21601325.000 4574375.000 -361.250
21601300.000 4574530.000 -360.000
21601600.000 4574650.000 -320.000
21601612.500 4574568.750 -323.750
21601625.000 4574487.500 -327.500
21601500.000 4574265.000 -355.000
21601350.000 4574220.000 -362.500
21601637.500 4574406.250 -331.250
21601650.000 4574325.000 -335.000
21601550.000 4574198.750 -353.750
21601325.000 4574116.250 -383.750
21601662.500 4574243.750 -338.750
21601675.000 4574162.500 -342.500
21601650.000 4574066.250 -351.250
21601375.000 4573978.750 -371.250
21601687.500 4574081.250 -346.250
21601700.000 4574000.000 -350.000
21601400.000 4573910.000 -365.000
21601725.000 4573827.500 -355.000
21601462.500 4573748.750 -368.125
21601287.500 4573670.000 -451.250
21601750.000 4573655.000 -360.000
21601525.000 4573587.500 -371.250
21601775.000 4573482.500 -365.000
21601587.500 4573426.250 -374.375
21601800.000 4573310.000 -370.000
21600950.000 4572938.750 -903.750
21601725.000 4572920.000 -407.500
21600500.000 4572910.000 -1110.000
21600825.000 4573876.250 -726.250
21600575.000 4572785.000 -1125.000
21600262.500 4572735.000 -1265.625
21600800.000 4572410.000 -1170.000
21600300.000 4572330.000 -1395.000
21601900.000 4572620.000 -390.000
21601837.500 4572496.250 -465.000
21601875.000 4572792.500 -385.000
21601850.000 4572965.000 -380.000
21601825.000 4573137.500 -375.000
21600850.000 4572210.000 -1167.500
21601925.000 4572501.250 -423.125
21601950.000 4572382.500 -456.250
21601975.000 4572263.750 -489.375
21601587.500 4572001.250 -765.000
21602000.000 4572145.000 -522.500
21602025.000 4572026.250 -555.625
21602050.000 4571907.500 -588.750
21601462.500 4571753.750 -915.000
21601175.000 4571922.500 -1057.500
21602075.000 4571788.750 -621.875
21602100.000 4571670.000 -655.000
21601400.000 4571452.500 -1028.750
21602012.500 4571576.250 -716.250
21601662.500 4571201.250 -961.250
21602112.500 4571571.250 -658.750
21602125.000 4571472.500 -662.500
21602137.500 4571373.750 -666.250
21602150.000 4571275.000 -670.000
21602162.500 4571176.250 -673.750
21602175.000 4571077.500 -677.500
21601487.500 4571013.750 -1083.750
21601400.000 4571186.250 -1086.875
21602187.500 4570978.750 -681.250
21602200.000 4570880.000 -685.000
21601400.000 4570920.000 -1145.000
21601350.000 4571006.250 -1146.875
21602137.500 4570810.000 -716.250
21601437.500 4570845.000 -1118.750
21602187.500 4570805.000 -693.750
21602175.000 4570730.000 -702.500
21602075.000 4570740.000 -747.500
21602162.500 4570655.000 -711.250
21602150.000 4570580.000 -720.000
21601950.000 4570600.000 -810.000
21601550.000 4570620.000 -1040.000
21602137.500 4570505.000 -728.750
21602125.000 4570430.000 -737.500
21601762.500 4570390.000 -903.750
21601625.000 4570470.000 -987.500
21602112.500 4570355.000 -746.250
21602100.000 4570280.000 -755.000
21601700.000 4570320.000 -935.000
21602037.500 4570167.500 -735.625
21601300.000 4570271.250 -1100.000
21601400.000 4570430.000 -1105.625
21601450.000 4570115.000 -975.000
21601000.000 4570010.000 -1100.000
[...]
POINT_DATA 979
COLOR_SCALARS GocadColor 4
0 1 0.48333 1
0 1 0.48333 1
0 1 0.48333 1
0 1 0.48333 1
0 1 0.48333 1
0 1 0.48333 1
0 1 0.48333 1
0 1 0.48333 1
0 1 0.48333 1
0 1 0.48333 1
0 1 0.48333 1
0 1 0.48333 1
0 1 0.48333 1
0 1 0.48333 1
0 1 0.48333 1
0 1 0.48333 1
0 1 0.48333 1
0 1 0.48333 1
0 1 0.48333 1
0 1 0.48333 1
0 1 0.48333 1
0 1 0.48333 1
0 1 0.48333 1
0 1 0.48333 1
0 1 0.48333 1
0 1 0.48333 1
0 1 0.48333 1
0 1 0.48333 1
0 1 0.48333 1
0 1 0.48333 1
0 1 0.48333 1
0 1 0.48333 1
0 1 0.48333 1
0 1 0.48333 1
0 1 0.48333 1
0 1 0.48333 1
0 1 0.48333 1
0 1 0.48333 1
0 1 0.48333 1
0 1 0.48333 1
0 1 0.48333 1
0 1 0.48333 1
0 1 0.48333 1
0 1 0.48333 1
0 1 0.48333 1
0 1 0.48333 1
0 1 0.48333 1
0 1 0.48333 1
0 1 0.48333 1
0 1 0.48333 1
0 1 0.48333 1
0 1 0.48333 1
0 1 0.48333 1
0 1 0.48333 1
0 1 0.48333 1
0 1 0.48333 1
0 1 0.48333 1
0 1 0.48333 1
0 1 0.48333 1
0 1 0.48333 1
0 1 0.48333 1
0 1 0.48333 1
0 1 0.48333 1
0 1 0.48333 1
0 1 0.48333 1
0 1 0.48333 1
0 1 0.48333 1
0 1 0.48333 1
0 1 0.48333 1
0 1 0.48333 1
0 1 0.48333 1
0 1 0.48333 1
0 1 0.48333 1
0 1 0.48333 1
0 1 0.48333 1
0 1 0.48333 1
0 1 0.48333 1
0 1 0.48333 1
0 1 0.48333 1
0 1 0.48333 1
0 1 0.48333 1
0 1 0.48333 1
0 1 0.48333 1
0 1 0.48333 1
0 1 0.48333 1
0 1 0.48333 1
0 1 0.48333 1
0 1 0.48333 1
0 1 0.48333 1
0 1 0.48333 1
0 1 0.48333 1
0 1 0.48333 1
0 1 0.48333 1
0 1 0.48333 1
0 1 0.48333 1
0 1 0.48333 1
0 1 0.48333 1
0 1 0.48333 1
0 1 0.48333 1
0 1 0.48333 1
0 1 0.48333 1
0 1 0.48333 1
0 1 0.48333 1
0 1 0.48333 1
0 1 0.48333 1
0 1 0.48333 1
0 1 0.48333 1
0 1 0.48333 1
0 1 0.48333 1
0 1 0.48333 1
0 1 0.48333 1
0 1 0.48333 1
0 1 0.48333 1
0 1 0.48333 1
0 1 0.48333 1
0 1 0.48333 1
0 1 0.48333 1
0 1 0.48333 1
0 1 0.48333 1
0 1 0.48333 1
0 1 0.48333 1
0 1 0.48333 1
0 1 0.48333 1
0 1 0.48333 1
0 1 0.48333 1
0 1 0.48333 1
0 1 0.48333 1
0 1 0.48333 1
0 1 0.48333 1
0 1 0.48333 1
0 1 0.48333 1
0 1 0.48333 1
0 1 0.48333 1
0 1 0.48333 1
0 1 0.48333 1
0 1 0.48333 1
0 1 0.48333 1
0 1 0.48333 1
0 1 0.48333 1
0 1 0.48333 1
0 1 0.48333 1
0 1 0.48333 1
0 1 0.48333 1
0 1 0.48333 1
0 1 0.48333 1
0 1 0.48333 1
0 1 0.48333 1
0 1 0.48333 1
0 1 0.48333 1
0 1 0.48333 1
0 1 0.48333 1
0 1 0.48333 1
0 1 0.48333 1
0 1 0.48333 1
0 1 0.48333 1
0 1 0.48333 1
0 1 0.48333 1
0 1 0.48333 1
0 1 0.48333 1
0 1 0.48333 1
0 1 0.48333 1
0 1 0.48333 1
0 1 0.48333 1
0 1 0.48333 1
0 1 0.48333 1
0 1 0.48333 1
0 1 0.48333 1
0 1 0.48333 1
0 1 0.48333 1
0 1 0.48333 1
0 1 0.48333 1
0 1 0.48333 1
0 1 0.48333 1
0 1 0.48333 1
0 1 0.48333 1
0 1 0.48333 1
0 1 0.48333 1
0 1 0.48333 1
0 1 0.48333 1
0 1 0.48333 1
0 1 0.48333 1
0 1 0.48333 1
0 1 0.48333 1
0 1 0.48333 1
0 1 0.48333 1
0 1 0.48333 1
0 1 0.48333 1
0 1 0.48333 1
0 1 0.48333 1
0 1 0.48333 1
0 1 0.48333 1
0 1 0.48333 1
0 1 0.48333 1
0 1 0.48333 1
0 1 0.48333 1
0 1 0.48333 1
0 1 0.48333 1
0 1 0.48333 1
0 1 0.48333 1
0 1 0.48333 1
0 1 0.48333 1
0 1 0.48333 1
0 1 0.48333 1
0 1 0.48333 1
0 1 0.48333 1
0 1 0.48333 1
0 1 0.48333 1
0 1 0.48333 1
0 1 0.48333 1
0 1 0.48333 1
0 1 0.48333 1
0 1 0.48333 1
0 1 0.48333 1
0 1 0.48333 1
0 1 0.48333 1
0 1 0.48333 1
0 1 0.48333 1
0 1 0.48333 1
0 1 0.48333 1
0 1 0.48333 1
0 1 0.48333 1
0 1 0.48333 1
0 1 0.48333 1
0 1 0.48333 1
0 1 0.48333 1
0 1 0.48333 1
0 1 0.48333 1
0 1 0.48333 1
0 1 0.48333 1
0 1 0.48333 1
0 1 0.48333 1
0 1 0.48333 1
0 1 0.48333 1
0 1 0.48333 1
0 1 0.48333 1
0 1 0.48333 1
0 1 0.48333 1
0 1 0.48333 1
0 1 0.48333 1
0 1 0.48333 1
0 1 0.48333 1
0 1 0.48333 1
0 1 0.48333 1
0 1 0.48333 1
0 1 0.48333 1
0 1 0.48333 1
0 1 0.48333 1
0 1 0.48333 1
0 1 0.48333 1
0 1 0.48333 1
0 1 0.48333 1
0 1 0.48333 1
0 1 0.48333 1
0 1 0.48333 1
0 1 0.48333 1
0 1 0.48333 1
0 1 0.48333 1
0 1 0.48333 1
0 1 0.48333 1
0 1 0.48333 1
0 1 0.48333 1
0 1 0.48333 1
0 1 0.48333 1
0 1 0.48333 1
0 1 0.48333 1
0 1 0.48333 1
0 1 0.48333 1
0 1 0.48333 1
0 1 0.48333 1
0 1 0.48333 1
0 1 0.48333 1
0 1 0.48333 1
0 1 0.48333 1
0 1 0.48333 1
0 1 0.48333 1
0 1 0.48333 1
0 1 0.48333 1
0 1 0.48333 1
0 1 0.48333 1
0 1 0.48333 1
0 1 0.48333 1
0 1 0.48333 1
0 1 0.48333 1
0 1 0.48333 1
0 1 0.48333 1
0 1 0.48333 1
0 1 0.48333 1
0 1 0.48333 1
0 1 0.48333 1
0 1 0.48333 1
0 1 0.48333 1
0 1 0.48333 1
0 1 0.48333 1
0 1 0.48333 1
0 1 0.48333 1
0 1 0.48333 1
0 1 0.48333 1
0 1 0.48333 1
0 1 0.48333 1
0 1 0.48333 1
0 1 0.48333 1
0 1 0.48333 1
0 1 0.48333 1
0 1 0.48333 1
0 1 0.48333 1
0 1 0.48333 1
0 1 0.48333 1
0 1 0.48333 1
0 1 0.48333 1
0 1 0.48333 1
0 1 0.48333 1
0 1 0.48333 1
0 1 0.48333 1
0 1 0.48333 1
0 1 0.48333 1
0 1 0.48333 1
0 1 0.48333 1
0 1 0.48333 1
0 1 0.48333 1
0 1 0.48333 1
0 1 0.48333 1
0 1 0.48333 1
0 1 0.48333 1
0 1 0.48333 1
0 1 0.48333 1
0 1 0.48333 1
0 1 0.48333 1
0 1 0.48333 1
0 1 0.48333 1
0 1 0.48333 1
0 1 0.48333 1
0 1 0.48333 1
0 1 0.48333 1
0 1 0.48333 1
0 1 0.48333 1
0 1 0.48333 1
0 1 0.48333 1
0 1 0.48333 1
0 1 0.48333 1
0 1 0.48333 1
0 1 0.48333 1
0 1 0.48333 1
0 1 0.48333 1
0 1 0.48333 1
0 1 0.48333 1
0 1 0.48333 1
0 1 0.48333 1
0 1 0.48333 1
0 1 0.48333 1
0 1 0.48333 1
0 1 0.48333 1
0 1 0.48333 1
0 1 0.48333 1
0 1 0.48333 1
0 1 0.48333 1
0 1 0.48333 1
0 1 0.48333 1
0 1 0.48333 1
0 1 0.48333 1
0 1 0.48333 1
0 1 0.48333 1
0 1 0.48333 1
0 1 0.48333 1
0 1 0.48333 1
0 1 0.48333 1
0 1 0.48333 1
0 1 0.48333 1
0 1 0.48333 1
0 1 0.48333 1
0 1 0.48333 1
0 1 0.48333 1
0 1 0.48333 1
0 1 0.48333 1
0 1 0.48333 1
0 1 0.48333 1
0 1 0.48333 1
0 1 0.48333 1
0 1 0.48333 1
0 1 0.48333 1
0 1 0.48333 1
0 1 0.48333 1
0 1 0.48333 1
0 1 0.48333 1
0 1 0.48333 1
0 1 0.48333 1
0 1 0.48333 1
0 1 0.48333 1
0 1 0.48333 1
0 1 0.48333 1
0 1 0.48333 1
0 1 0.48333 1
0 1 0.48333 1
0 1 0.48333 1
0 1 0.48333 1
0 1 0.48333 1
0 1 0.48333 1
0 1 0.48333 1
0 1 0.48333 1
0 1 0.48333 1
0 1 0.48333 1
0 1 0.48333 1
0 1 0.48333 1
0 1 0.48333 1
0 1 0.48333 1
0 1 0.48333 1
0 1 0.48333 1
0 1 0.48333 1
0 1 0.48333 1
0 1 0.48333 1
0 1 0.48333 1
0 1 0.48333 1
0 1 0.48333 1
0 1 0.48333 1
0 1 0.48333 1
0 1 0.48333 1
0 1 0.48333 1
0 1 0.48333 1
0 1 0.48333 1
0 1 0.48333 1
0 1 0.48333 1
0 1 0.48333 1
0 1 0.48333 1
0 1 0.48333 1
0 1 0.48333 1
0 1 0.48333 1
0 1 0.48333 1
0 1 0.48333 1
0 1 0.48333 1
0 1 0.48333 1
0 1 0.48333 1
0 1 0.48333 1
0 1 0.48333 1
0 1 0.48333 1
0 1 0.48333 1
0 1 0.48333 1
0 1 0.48333 1
0 1 0.48333 1
0 1 0.48333 1
0 1 0.48333 1
0 1 0.48333 1
0 1 0.48333 1
0 1 0.48333 1
0 1 0.48333 1
0 1 0.48333 1
0 1 0.48333 1
0 1 0.48333 1
0 1 0.48333 1
0 1 0.48333 1
0 1 0.48333 1
0 1 0.48333 1
0 1 0.48333 1
0 1 0.48333 1
0 1 0.48333 1
0 1 0.48333 1
0 1 0.48333 1
0 1 0.48333 1
0 1 0.48333 1
0 1 0.48333 1
0 1 0.48333 1
0 1 0.48333 1
0 1 0.48333 1
0 1 0.48333 1
0 1 0.48333 1
0 1 0.48333 1
0 1 0.48333 1
0 1 0.48333 1
0 1 0.48333 1
0 1 0.48333 1
0 1 0.48333 1
0 1 0.48333 1
0 1 0.48333 1
0 1 0.48333 1
0 1 0.48333 1
0 1 0.48333 1
0 1 0.48333 1
0 1 0.48333 1
0 1 0.48333 1
0 1 0.48333 1
0 1 0.48333 1
0 1 0.48333 1
0 1 0.48333 1
0 1 0.48333 1
0 1 0.48333 1
0 1 0.48333 1
0 1 0.48333 1
0 1 0.48333 1
0 1 0.48333 1
0 1 0.48333 1
0 1 0.48333 1
0 1 0.48333 1
0 1 0.48333 1
0 1 0.48333 1
0 1 0.48333 1
0 1 0.48333 1
0 1 0.48333 1
0 1 0.48333 1
0 1 0.48333 1
0 1 0.48333 1
0 1 0.48333 1
0 1 0.48333 1
0 1 0.48333 1
0 1 0.48333 1
0 1 0.48333 1
0 1 0.48333 1
0 1 0.48333 1
0 1 0.48333 1
0 1 0.48333 1
0 1 0.48333 1
0 1 0.48333 1
0 1 0.48333 1
0 1 0.48333 1
0 1 0.48333 1
0 1 0.48333 1
0 1 0.48333 1
0 1 0.48333 1
0 1 0.48333 1
0 1 0.48333 1
0 1 0.48333 1
0 1 0.48333 1
0 1 0.48333 1
0 1 0.48333 1
0 1 0.48333 1
0 1 0.48333 1
0 1 0.48333 1
0 1 0.48333 1
0 1 0.48333 1
0 1 0.48333 1
0 1 0.48333 1
0 1 0.48333 1
0 1 0.48333 1
0 1 0.48333 1
0 1 0.48333 1
0 1 0.48333 1
0 1 0.48333 1
0 1 0.48333 1
0 1 0.48333 1
0 1 0.48333 1
0 1 0.48333 1
0 1 0.48333 1
0 1 0.48333 1
0 1 0.48333 1
0 1 0.48333 1
0 1 0.48333 1
0 1 0.48333 1
0 1 0.48333 1
0 1 0.48333 1
0 1 0.48333 1
0 1 0.48333 1
0 1 0.48333 1
0 1 0.48333 1
0 1 0.48333 1
0 1 0.48333 1
0 1 0.48333 1
0 1 0.48333 1
0 1 0.48333 1
0 1 0.48333 1
0 1 0.48333 1
0 1 0.48333 1
0 1 0.48333 1
0 1 0.48333 1
0 1 0.48333 1
0 1 0.48333 1
0 1 0.48333 1
0 1 0.48333 1
0 1 0.48333 1
0 1 0.48333 1
0 1 0.48333 1
0 1 0.48333 1
0 1 0.48333 1
0 1 0.48333 1
0 1 0.48333 1
0 1 0.48333 1
0 1 0.48333 1
0 1 0.48333 1
0 1 0.48333 1
0 1 0.48333 1
0 1 0.48333 1
0 1 0.48333 1
0 1 0.48333 1
0 1 0.48333 1
0 1 0.48333 1
0 1 0.48333 1
0 1 0.48333 1
0 1 0.48333 1
0 1 0.48333 1
0 1 0.48333 1
0 1 0.48333 1
0 1 0.48333 1
0 1 0.48333 1
0 1 0.48333 1
0 1 0.48333 1
0 1 0.48333 1
0 1 0.48333 1
0 1 0.48333 1
0 1 0.48333 1
0 1 0.48333 1
0 1 0.48333 1
0 1 0.48333 1
0 1 0.48333 1
0 1 0.48333 1
0 1 0.48333 1
0 1 0.48333 1
0 1 0.48333 1
0 1 0.48333 1
0 1 0.48333 1
0 1 0.48333 1
0 1 0.48333 1
0 1 0.48333 1
0 1 0.48333 1
0 1 0.48333 1
0 1 0.48333 1
0 1 0.48333 1
0 1 0.48333 1
0 1 0.48333 1
0 1 0.48333 1
0 1 0.48333 1
0 1 0.48333 1
0 1 0.48333 1
0 1 0.48333 1
0 1 0.48333 1
0 1 0.48333 1
0 1 0.48333 1
0 1 0.48333 1
0 1 0.48333 1
0 1 0.48333 1
0 1 0.48333 1
0 1 0.48333 1
0 1 0.48333 1
0 1 0.48333 1
0 1 0.48333 1
0 1 0.48333 1
0 1 0.48333 1
0 1 0.48333 1
0 1 0.48333 1
0 1 0.48333 1
0 1 0.48333 1
0 1 0.48333 1
0 1 0.48333 1
0 1 0.48333 1
0 1 0.48333 1
0 1 0.48333 1
0 1 0.48333 1
0 1 0.48333 1
0 1 0.48333 1
0 1 0.48333 1
0 1 0.48333 1
0 1 0.48333 1
0 1 0.48333 1
0 1 0.48333 1
0 1 0.48333 1
0 1 0.48333 1
0 1 0.48333 1
0 1 0.48333 1
0 1 0.48333 1
0 1 0.48333 1
0 1 0.48333 1
0 1 0.48333 1
0 1 0.48333 1
0 1 0.48333 1
0 1 0.48333 1
0 1 0.48333 1
0 1 0.48333 1
0 1 0.48333 1
0 1 0.48333 1
0 1 0.48333 1
0 1 0.48333 1
0 1 0.48333 1
0 1 0.48333 1
0 1 0.48333 1
0 1 0.48333 1
0 1 0.48333 1
0 1 0.48333 1
0 1 0.48333 1
0 1 0.48333 1
0 1 0.48333 1
0 1 0.48333 1
0 1 0.48333 1
0 1 0.48333 1
0 1 0.48333 1
0 1 0.48333 1
0 1 0.48333 1
0 1 0.48333 1
0 1 0.48333 1
0 1 0.48333 1
0 1 0.48333 1
0 1 0.48333 1
0 1 0.48333 1
0 1 0.48333 1
0 1 0.48333 1
0 1 0.48333 1
0 1 0.48333 1
0 1 0.48333 1
0 1 0.48333 1
0 1 0.48333 1
0 1 0.48333 1
0 1 0.48333 1
0 1 0.48333 1
0 1 0.48333 1
0 1 0.48333 1
0 1 0.48333 1
0 1 0.48333 1
0 1 0.48333 1
0 1 0.48333 1
0 1 0.48333 1
0 1 0.48333 1
0 1 0.48333 1
0 1 0.48333 1
0 1 0.48333 1
0 1 0.48333 1
0 1 0.48333 1
0 1 0.48333 1
0 1 0.48333 1
0 1 0.48333 1
0 1 0.48333 1
0 1 0.48333 1
0 1 0.48333 1
0 1 0.48333 1
0 1 0.48333 1
0 1 0.48333 1
0 1 0.48333 1
0 1 0.48333 1
0 1 0.48333 1
0 1 0.48333 1
0 1 0.48333 1
0 1 0.48333 1
0 1 0.48333 1
0 1 0.48333 1
0 1 0.48333 1
0 1 0.48333 1
0 1 0.48333 1
0 1 0.48333 1
0 1 0.48333 1
0 1 0.48333 1
0 1 0.48333 1
0 1 0.48333 1
0 1 0.48333 1
0 1 0.48333 1
0 1 0.48333 1
0 1 0.48333 1
0 1 0.48333 1
0 1 0.48333 1
0 1 0.48333 1
0 1 0.48333 1
0 1 0.48333 1
0 1 0.48333 1
0 1 0.48333 1
0 1 0.48333 1
0 1 0.48333 1
0 1 0.48333 1
0 1 0.48333 1
0 1 0.48333 1
0 1 0.48333 1
0 1 0.48333 1
0 1 0.48333 1
0 1 0.48333 1
0 1 0.48333 1
0 1 0.48333 1
0 1 0.48333 1
0 1 0.48333 1
0 1 0.48333 1
0 1 0.48333 1
0 1 0.48333 1
0 1 0.48333 1
0 1 0.48333 1
0 1 0.48333 1
0 1 0.48333 1
0 1 0.48333 1
0 1 0.48333 1
0 1 0.48333 1
0 1 0.48333 1
0 1 0.48333 1
0 1 0.48333 1
0 1 0.48333 1
0 1 0.48333 1
0 1 0.48333 1
0 1 0.48333 1
0 1 0.48333 1
0 1 0.48333 1
0 1 0.48333 1
0 1 0.48333 1
0 1 0.48333 1
0 1 0.48333 1
0 1 0.48333 1
0 1 0.48333 1
0 1 0.48333 1
0 1 0.48333 1
0 1 0.48333 1
0 1 0.48333 1
0 1 0.48333 1
0 1 0.48333 1
0 1 0.48333 1
0 1 0.48333 1
0 1 0.48333 1
0 1 0.48333 1
0 1 0.48333 1
0 1 0.48333 1
0 1 0.48333 1
0 1 0.48333 1
0 1 0.48333 1
0 1 0.48333 1
0 1 0.48333 1
0 1 0.48333 1
0 1 0.48333 1
0 1 0.48333 1
0 1 0.48333 1
0 1 0.48333 1
0 1 0.48333 1
0 1 0.48333 1
0 1 0.48333 1
0 1 0.48333 1
0 1 0.48333 1
0 1 0.48333 1
0 1 0.48333 1
0 1 0.48333 1
0 1 0.48333 1
0 1 0.48333 1
0 1 0.48333 1
0 1 0.48333 1
0 1 0.48333 1
0 1 0.48333 1
0 1 0.48333 1
0 1 0.48333 1
0 1 0.48333 1
0 1 0.48333 1
0 1 0.48333 1
0 1 0.48333 1
0 1 0.48333 1
0 1 0.48333 1
0 1 0.48333 1
0 1 0.48333 1
0 1 0.48333 1
0 1 0.48333 1
0 1 0.48333 1
0 1 0.48333 1
0 1 0.48333 1
0 1 0.48333 1
0 1 0.48333 1
0 1 0.48333 1
0 1 0.48333 1
0 1 0.48333 1
0 1 0.48333 1
0 1 0.48333 1
0 1 0.48333 1
0 1 0.48333 1
0 1 0.48333 1
0 1 0.48333 1
0 1 0.48333 1
0 1 0.48333 1
0 1 0.48333 1
0 1 0.48333 1
0 1 0.48333 1
0 1 0.48333 1
0 1 0.48333 1
0 1 0.48333 1
0 1 0.48333 1
0 1 0.48333 1
0 1 0.48333 1
0 1 0.48333 1
0 1 0.48333 1
0 1 0.48333 1
0 1 0.48333 1
0 1 0.48333 1
0 1 0.48333 1
0 1 0.48333 1
0 1 0.48333 1
0 1 0.48333 1
0 1 0.48333 1
0 1 0.48333 1
0 1 0.48333 1
0 1 0.48333 1
0 1 0.48333 1
0 1 0.48333 1
0 1 0.48333 1
0 1 0.48333 1
0 1 0.48333 1
0 1 0.48333 1
0 1 0.48333 1
0 1 0.48333 1
0 1 0.48333 1
0 1 0.48333 1
0 1 0.48333 1
0 1 0.48333 1
0 1 0.48333 1
0 1 0.48333 1
0 1 0.48333 1
0 1 0.48333 1
0 1 0.48333 1
0 1 0.48333 1
0 1 0.48333 1
0 1 0.48333 1
0 1 0.48333 1
0 1 0.48333 1
0 1 0.48333 1
0 1 0.48333 1
0 1 0.48333 1
0 1 0.48333 1
0 1 0.48333 1
0 1 0.48333 1
0 1 0.48333 1
0 1 0.48333 1
0 1 0.48333 1
0 1 0.48333 1
0 1 0.48333 1
0 1 0.48333 1
0 1 0.48333 1
0 1 0.48333 1
0 1 0.48333 1
0 1 0.48333 1
0 1 0.48333 1
0 1 0.48333 1
0 1 0.48333 1
0 1 0.48333 1
0 1 0.48333 1
0 1 0.48333 1
0 1 0.48333 1
0 1 0.48333 1
0 1 0.48333 1
0 1 0.48333 1
0 1 0.48333 1
0 1 0.48333 1
0 1 0.48333 1
0 1 0.48333 1
0 1 0.48333 1
0 1 0.48333 1
0 1 0.48333 1
0 1 0.48333 1
0 1 0.48333 1
0 1 0.48333 1
0 1 0.48333 1
0 1 0.48333 1
0 1 0.48333 1
0 1 0.48333 1
0 1 0.48333 1
0 1 0.48333 1
0 1 0.48333 1
0 1 0.48333 1
0 1 0.48333 1
0 1 0.48333 1
0 1 0.48333 1
0 1 0.48333 1
0 1 0.48333 1
0 1 0.48333 1
0 1 0.48333 1
0 1 0.48333 1
0 1 0.48333 1
0 1 0.48333 1
0 1 0.48333 1
0 1 0.48333 1
0 1 0.48333 1
0 1 0.48333 1
0 1 0.48333 1
0 1 0.48333 1
0 1 0.48333 1
0 1 0.48333 1
0 1 0.48333 1
0 1 0.48333 1
0 1 0.48333 1
0 1 0.48333 1
0 1 0.48333 1
0 1 0.48333 1
0 1 0.48333 1
0 1 0.48333 1
0 1 0.48333 1
0 1 0.48333 1
0 1 0.48333 1
0 1 0.48333 1
0 1 0.48333 1
0 1 0.48333 1
0 1 0.48333 1
0 1 0.48333 1
0 1 0.48333 1
0 1 0.48333 1
0 1 0.48333 1
0 1 0.48333 1
0 1 0.48333 1
0 1 0.48333 1
0 1 0.48333 1
0 1 0.48333 1
0 1 0.48333 1

