# vtk DataFile Version 3.0
Gocad TSurf to VTK
ASCII
DATASET POLYDATA
POINTS 157 float
21613094.422 4574810.758 399.840
21613200.000 4574910.000 365.000
21613094.422 4574810.758 399.840
21613093.336 4574816.137 400.199
21612875.000 4574940.000 343.750
21613061.836 4574802.211 402.135
21612100.000 4576030.000 0.000
21612050.000 4575780.000 70.000
21612550.000 4574970.000 322.500
21611950.000 4575845.000 42.500
21611800.000 4575660.000 85.000
21611500.000 4576280.000 -103.750
21611500.000 4575950.000 -12.500
21611500.000 4576610.000 -195.000
21611500.000 4575620.000 78.750
21611650.000 4575475.000 127.500
21612000.000 4575530.000 140.000
21611500.000 4575290.000 170.000
21611950.000 4575280.000 210.000
21611900.000 4575030.000 280.000
21612225.000 4575000.000 301.250
21611550.000 4575140.000 201.250
21611850.000 4574945.000 283.750
21611975.000 4574872.500 315.000
21611600.000 4574990.000 232.500
21611800.000 4574860.000 287.500
21611650.000 4574840.000 263.750
21611750.000 4574775.000 291.250
21612050.000 4574715.000 350.000
21611700.000 4574690.000 295.000
21612125.000 4574557.500 385.000
21612200.000 4574400.000 420.000
21612325.000 4574410.000 447.500
21612075.000 4574357.500 377.500
21612175.000 4574295.000 406.250
21611700.000 4574575.000 283.750
21611950.000 4574315.000 335.000
21612150.000 4574190.000 392.500
21611700.000 4574460.000 272.500
21611825.000 4574272.500 292.500
21612125.000 4574085.000 378.750
21611700.000 4574345.000 261.250
21611700.000 4574230.000 250.000
21612100.000 4573980.000 365.000
21611625.000 4573947.500 170.000
21611925.000 4573760.000 256.250
21612075.000 4573690.000 283.750
21611550.000 4573665.000 90.000
21611750.000 4573540.000 147.500
21611475.000 4573382.500 10.000
21611575.000 4573320.000 38.750
21612050.000 4573400.000 202.500
21611400.000 4573100.000 -70.000
21612025.000 4573110.000 121.250
21612000.000 4572820.000 40.000
21612125.000 4573047.500 148.750
21611825.000 4572667.500 37.500
21611950.000 4572612.500 65.000
21611375.000 4572877.500 -45.000
21611650.000 4572515.000 35.000
21611900.000 4572405.000 90.000
21611350.000 4572655.000 -20.000
21611475.000 4572362.500 32.500
21611850.000 4572197.500 115.000
21611325.000 4572432.500 5.000
21611300.000 4572210.000 30.000
21611800.000 4571990.000 140.000
21611325.000 4572067.500 26.250
21611700.000 4571902.500 108.750
21611800.000 4571865.000 130.000
21611350.000 4571925.000 22.500
21611600.000 4571815.000 77.500
21611800.000 4571740.000 120.000
21611375.000 4571782.500 18.750
21611500.000 4571727.500 46.250
21611800.000 4571615.000 110.000
21611400.000 4571640.000 15.000
21611800.000 4571490.000 100.000
21612125.000 4571472.500 176.250
21612805.922 4571073.676 365.934
21612835.523 4571158.684 365.723
21612797.477 4571049.445 365.995
21612847.281 4571192.449 365.639
21612450.000 4571455.000 252.500
21612873.570 4571267.922 365.452
21612892.172 4571321.328 365.319
21612775.000 4571437.500 328.750
21612895.930 4571328.668 365.577
21612919.078 4571373.867 367.170
21612946.922 4571428.242 369.086
21612933.711 4571492.910 371.103
21612959.438 4571512.848 371.893
21612150.000 4572047.500 181.250
21613107.555 4571627.648 376.444
21613111.352 4571630.590 376.561
21612500.000 4572105.000 222.500
21613127.930 4571643.441 377.070
21613150.000 4571820.000 355.000
21612850.000 4572162.500 263.750
21613150.000 4571820.000 355.000
21613175.000 4572020.000 330.000
21613127.930 4571643.441 377.070
21613127.930 4571643.441 377.070
21613127.930 4571643.441 377.070
21613127.930 4571643.441 377.070
21613150.000 4571820.000 355.000
21613175.000 4572020.000 330.000
21613200.000 4572220.000 305.000
21613175.000 4572020.000 330.000
21613025.000 4572597.500 347.500
21612125.000 4573047.500 148.750
21613025.000 4572597.500 347.500
21612911.133 4572843.125 375.153
21612911.133 4572843.125 375.153
21612911.133 4572843.125 375.153
21612793.313 4572980.668 371.136
21612762.094 4573017.113 370.071
21612760.922 4573019.539 370.329
21612250.000 4573275.000 257.500
21612606.633 4573340.035 404.349
21612250.000 4573275.000 257.500
21612375.000 4573502.500 366.250
21612375.000 4573502.500 366.250
21612457.242 4573652.176 437.798
21612431.367 4573723.539 444.114
21612457.242 4573652.176 437.798
21612558.266 4573440.504 415.014
21612577.055 4573401.473 410.871
21612408.227 4573787.359 449.763
21612403.328 4573825.063 451.638
21612200.000 4574025.000 402.500
21612393.023 4573904.359 455.582
21612300.000 4574070.000 440.000
21612384.227 4573972.090 458.950
21612367.547 4574100.398 465.331
21612366.063 4574142.152 466.752
21612377.820 4574021.363 461.401
21612365.258 4574164.504 467.513
21612361.469 4574270.828 471.131
21612381.734 4574328.949 469.384
21612391.461 4574356.832 468.545
21612412.438 4574416.996 466.737
21612418.297 4574433.410 466.221
21612421.117 4574441.301 465.973
21612442.711 4574501.816 464.073
21612449.984 4574522.199 463.432
21612469.680 4574577.398 461.699
21612478.852 4574603.098 460.891
21612537.750 4574631.281 451.865
21612651.289 4574685.613 434.465
21612671.469 4574695.273 431.371
21612723.203 4574710.195 427.209
21612845.320 4574745.422 417.384
21612852.102 4574747.199 416.906
21612924.211 4574766.113 411.828
21613093.086 4574817.367 400.281
21613200.000 4574920.000 365.000

POLYGONS 219 876
3 8 154 153
3 13 6 11
3 48 45 46
3 80 79 78
3 75 72 78
3 8 153 152
3 96 94 95
3 20 150 149
3 119 118 127
3 30 27 28
3 19 17 18
3 63 62 59
3 82 78 83
3 50 48 51
3 3 1 155
3 38 36 39
3 40 39 36
3 27 25 28
3 31 30 32
3 16 7 8
3 23 19 146
3 61 59 62
3 49 48 50
3 1 156 155
3 101 96 99
3 35 33 36
3 57 54 98
3 16 8 20
3 54 107 98
3 6 1 4
3 72 68 69
3 43 39 40
3 66 62 63
3 58 52 56
3 148 20 149
3 90 89 66
3 40 37 130
3 43 129 128
3 112 109 113
3 30 142 141
3 12 10 14
3 63 60 92
3 24 22 25
3 60 57 95
3 60 95 92
3 31 139 138
3 127 122 126
3 122 121 125
3 100 107 106
3 79 77 78
3 121 122 118
3 47 48 49
3 31 29 30
3 146 19 147
3 46 43 124
3 114 111 112
3 22 19 23
3 93 91 92
3 12 9 10
3 97 98 108
3 23 145 144
3 121 46 123
3 51 48 46
3 77 74 75
3 0 1 2
3 38 35 36
3 66 63 92
3 53 50 51
3 135 34 137
3 120 121 118
3 67 68 70
3 7 4 8
3 88 87 86
3 14 10 15
3 107 54 109
3 72 71 68
3 31 32 139
3 24 25 26
3 130 133 131
3 65 66 67
3 84 82 83
3 110 118 117
3 51 120 53
3 94 92 95
3 117 118 119
3 43 42 39
3 51 121 120
3 75 74 71
3 20 8 150
3 87 85 86
3 77 76 74
3 70 71 73
3 102 101 99
3 134 34 135
3 99 97 100
3 17 19 21
3 99 100 105
3 4 1 0
3 54 53 55
3 42 43 44
3 60 59 56
3 100 106 105
3 139 32 140
3 28 25 23
3 69 66 86
3 65 64 62
3 109 110 113
3 52 54 56
3 21 22 24
3 43 40 130
3 137 31 138
3 37 33 34
3 8 151 150
3 26 25 27
3 111 109 112
3 28 143 142
3 132 34 134
3 10 9 7
3 98 107 108
3 133 132 136
3 57 98 95
3 94 93 92
3 18 16 20
3 110 115 113
3 47 45 48
3 54 110 109
3 54 52 53
3 85 84 83
3 70 68 71
3 97 95 98
3 11 6 9
3 44 43 45
3 16 10 7
3 5 4 0
3 140 32 141
3 19 18 20
3 72 83 78
3 11 9 12
3 29 31 33
3 7 6 4
3 115 110 116
3 54 55 110
3 37 132 130
3 67 66 68
3 52 50 53
3 8 4 154
3 53 120 55
3 110 117 116
3 76 73 74
3 28 23 144
3 56 54 57
3 15 10 16
3 89 88 86
3 108 107 100
3 52 49 50
3 40 36 37
3 44 45 47
3 123 46 124
3 107 109 111
3 75 71 72
3 9 6 7
3 120 118 110
3 35 29 33
3 79 81 77
3 25 22 23
3 21 19 22
3 91 66 92
3 89 86 66
3 37 34 132
3 41 38 39
3 77 75 78
3 43 128 124
3 55 120 110
3 68 66 69
3 45 43 46
3 33 31 34
3 60 56 57
3 118 122 127
3 64 61 62
3 97 108 100
3 61 58 59
3 96 97 99
3 122 125 126
3 63 59 60
3 91 90 66
3 69 86 83
3 66 65 62
3 99 105 104
3 28 144 143
3 129 130 131
3 4 5 154
3 18 15 16
3 43 130 129
3 130 132 133
3 29 27 30
3 1 3 2
3 17 15 18
3 37 36 33
3 19 20 148
3 103 99 104
3 151 8 152
3 72 69 83
3 73 71 74
3 32 30 141
3 58 56 59
3 85 83 86
3 103 102 99
3 23 146 145
3 29 26 27
3 19 148 147
3 34 31 137
3 82 80 78
3 125 121 123
3 17 14 15
3 96 95 97
3 46 121 51
3 42 41 39
3 132 134 136
3 30 28 142

POINT_DATA 157
COLOR_SCALARS GocadColor 4
0.392157 0.584314 0.929412 1
0.392157 0.584314 0.929412 1
0.392157 0.584314 0.929412 1
0.392157 0.584314 0.929412 1
0.392157 0.584314 0.929412 1
0.392157 0.584314 0.929412 1
0.392157 0.584314 0.929412 1
0.392157 0.584314 0.929412 1
0.392157 0.584314 0.929412 1
0.392157 0.584314 0.929412 1
0.392157 0.584314 0.929412 1
0.392157 0.584314 0.929412 1
0.392157 0.584314 0.929412 1
0.392157 0.584314 0.929412 1
0.392157 0.584314 0.929412 1
0.392157 0.584314 0.929412 1
0.392157 0.584314 0.929412 1
0.392157 0.584314 0.929412 1
0.392157 0.584314 0.929412 1
0.392157 0.584314 0.929412 1
0.392157 0.584314 0.929412 1
0.392157 0.584314 0.929412 1
0.392157 0.584314 0.929412 1
0.392157 0.584314 0.929412 1
0.392157 0.584314 0.929412 1
0.392157 0.584314 0.929412 1
0.392157 0.584314 0.929412 1
0.392157 0.584314 0.929412 1
0.392157 0.584314 0.929412 1
0.392157 0.584314 0.929412 1
0.392157 0.584314 0.929412 1
0.392157 0.584314 0.929412 1
0.392157 0.584314 0.929412 1
0.392157 0.584314 0.929412 1
0.392157 0.584314 0.929412 1
0.392157 0.584314 0.929412 1
0.392157 0.584314 0.929412 1
0.392157 0.584314 0.929412 1
0.392157 0.584314 0.929412 1
0.392157 0.584314 0.929412 1
0.392157 0.584314 0.929412 1
0.392157 0.584314 0.929412 1
0.392157 0.584314 0.929412 1
0.392157 0.584314 0.929412 1
0.392157 0.584314 0.929412 1
0.392157 0.584314 0.929412 1
0.392157 0.584314 0.929412 1
0.392157 0.584314 0.929412 1
0.392157 0.584314 0.929412 1
0.392157 0.584314 0.929412 1
0.392157 0.584314 0.929412 1
0.392157 0.584314 0.929412 1
0.392157 0.584314 0.929412 1
0.392157 0.584314 0.929412 1
0.392157 0.584314 0.929412 1
0.392157 0.584314 0.929412 1
0.392157 0.584314 0.929412 1
0.392157 0.584314 0.929412 1
0.392157 0.584314 0.929412 1
0.392157 0.584314 0.929412 1
0.392157 0.584314 0.929412 1
0.392157 0.584314 0.929412 1
0.392157 0.584314 0.929412 1
0.392157 0.584314 0.929412 1
0.392157 0.584314 0.929412 1
0.392157 0.584314 0.929412 1
0.392157 0.584314 0.929412 1
0.392157 0.584314 0.929412 1
0.392157 0.584314 0.929412 1
0.392157 0.584314 0.929412 1
0.392157 0.584314 0.929412 1
0.392157 0.584314 0.929412 1
0.392157 0.584314 0.929412 1
0.392157 0.584314 0.929412 1
0.392157 0.584314 0.929412 1
0.392157 0.584314 0.929412 1
0.392157 0.584314 0.929412 1
0.392157 0.584314 0.929412 1
0.392157 0.584314 0.929412 1
0.392157 0.584314 0.929412 1
0.392157 0.584314 0.929412 1
0.392157 0.584314 0.929412 1
0.392157 0.584314 0.929412 1
0.392157 0.584314 0.929412 1
0.392157 0.584314 0.929412 1
0.392157 0.584314 0.929412 1
0.392157 0.584314 0.929412 1
0.392157 0.584314 0.929412 1
0.392157 0.584314 0.929412 1
0.392157 0.584314 0.929412 1
0.392157 0.584314 0.929412 1
0.392157 0.584314 0.929412 1
0.392157 0.584314 0.929412 1
0.392157 0.584314 0.929412 1
0.392157 0.584314 0.929412 1
0.392157 0.584314 0.929412 1
0.392157 0.584314 0.929412 1
0.392157 0.584314 0.929412 1
0.392157 0.584314 0.929412 1
0.392157 0.584314 0.929412 1
0.392157 0.584314 0.929412 1
0.392157 0.584314 0.929412 1
0.392157 0.584314 0.929412 1
0.392157 0.584314 0.929412 1
0.392157 0.584314 0.929412 1
0.392157 0.584314 0.929412 1
0.392157 0.584314 0.929412 1
0.392157 0.584314 0.929412 1
0.392157 0.584314 0.929412 1
0.392157 0.584314 0.929412 1
0.392157 0.584314 0.929412 1
0.392157 0.584314 0.929412 1
0.392157 0.584314 0.929412 1
0.392157 0.584314 0.929412 1
0.392157 0.584314 0.929412 1
0.392157 0.584314 0.929412 1
0.392157 0.584314 0.929412 1
0.392157 0.584314 0.929412 1
0.392157 0.584314 0.929412 1
0.392157 0.584314 0.929412 1
0.392157 0.584314 0.929412 1
0.392157 0.584314 0.929412 1
0.392157 0.584314 0.929412 1
0.392157 0.584314 0.929412 1
0.392157 0.584314 0.929412 1
0.392157 0.584314 0.929412 1
0.392157 0.584314 0.929412 1
0.392157 0.584314 0.929412 1
0.392157 0.584314 0.929412 1
0.392157 0.584314 0.929412 1
0.392157 0.584314 0.929412 1
0.392157 0.584314 0.929412 1
0.392157 0.584314 0.929412 1
0.392157 0.584314 0.929412 1
0.392157 0.584314 0.929412 1
0.392157 0.584314 0.929412 1
0.392157 0.584314 0.929412 1
0.392157 0.584314 0.929412 1
0.392157 0.584314 0.929412 1
0.392157 0.584314 0.929412 1
0.392157 0.584314 0.929412 1
0.392157 0.584314 0.929412 1
0.392157 0.584314 0.929412 1
0.392157 0.584314 0.929412 1
0.392157 0.584314 0.929412 1
0.392157 0.584314 0.929412 1
0.392157 0.584314 0.929412 1
0.392157 0.584314 0.929412 1
0.392157 0.584314 0.929412 1
0.392157 0.584314 0.929412 1
0.392157 0.584314 0.929412 1
0.392157 0.584314 0.929412 1
0.392157 0.584314 0.929412 1
0.392157 0.584314 0.929412 1
0.392157 0.584314 0.929412 1
0.392157 0.584314 0.929412 1
0.392157 0.584314 0.929412 1

