# vtk DataFile Version 3.0
Gocad TSurf to VTK
ASCII
DATASET POLYDATA
POINTS 261 float
21615875.000 4578240.000 363.750
21616025.000 4578427.500 363.750
21615850.000 4578425.000 377.500
21616125.000 4578577.500 436.250
21615750.000 4578300.000 377.500
21616375.000 4578392.500 342.500
21616400.000 4578210.000 307.500
21616400.000 4578770.000 460.000
21616525.000 4578647.500 425.000
21616275.000 4578832.500 518.750
21615975.000 4578872.500 608.750
21616275.000 4578832.500 518.750
21615900.000 4579020.000 695.000
21615500.000 4578420.000 405.000
21615750.000 4578970.000 600.000
21615875.000 4579120.000 666.250
21615450.000 4578520.000 382.500
21615300.000 4578820.000 315.000
21615350.000 4578400.000 338.750
21615200.000 4578380.000 272.500
21615300.000 4578120.000 375.000
21615200.000 4578175.000 316.250
21615575.000 4578287.500 405.000
21615425.000 4578062.500 382.500
21615625.000 4578360.000 391.250
21615650.000 4578155.000 405.000
21615900.000 4577780.000 397.500
21615675.000 4577947.500 397.500
21616150.000 4577810.000 350.000
21616075.000 4577505.000 390.000
21615850.000 4577420.000 447.500
21616500.000 4577730.000 295.000
21616300.000 4577327.500 378.750
21616725.000 4577882.500 292.500
21616725.000 4578317.500 327.500
21616650.000 4577687.500 315.000
21616850.000 4577775.000 320.000
21616575.000 4577595.000 305.000
21616700.000 4577565.000 315.000
21616500.000 4577320.000 355.000
21616400.000 4577200.000 382.500
21616650.000 4577460.000 315.000
21616900.000 4577400.000 335.000
21616800.000 4577645.000 335.000
21616975.000 4577667.500 347.500
21617050.000 4577740.000 361.250
21617100.000 4577560.000 375.000
21617000.000 4577920.000 347.500
21616950.000 4578100.000 333.750
21616900.000 4578280.000 320.000
21616775.000 4578402.500 355.000
21616650.000 4578525.000 390.000
21616550.000 4578355.000 335.000
21616875.000 4576962.500 357.500
21616450.000 4576997.500 407.500
21616650.000 4576685.000 327.500
21616500.000 4576512.500 368.750
21616650.000 4576365.000 340.000
21616550.000 4576285.000 320.000
21616425.000 4575767.500 322.500
21616300.000 4575617.500 326.250
21616400.000 4576065.000 347.500
21616200.000 4575170.000 305.000
21616125.000 4575392.500 337.500
21616050.000 4575615.000 370.000
21615750.000 4575440.000 98.750
21615950.000 4575475.000 222.500
21615825.000 4574990.000 71.250
21615450.000 4575087.500 62.500
21615900.000 4574810.000 85.000
21615750.000 4574902.500 77.500
21615600.000 4574995.000 70.000
21615600.000 4574647.500 -68.750
21615400.000 4575002.500 13.750
21615700.000 4574470.000 -110.000
21615450.000 4574445.000 -91.250
21615500.000 4574200.000 -140.000
21615275.000 4574225.000 -62.500
21615050.000 4574250.000 15.000
21615200.000 4573850.000 -95.000
21615050.000 4573962.500 -28.750
21614750.000 4573840.000 77.500
21614900.000 4574075.000 37.500
21614700.000 4573210.000 40.000
21614600.000 4573362.500 92.500
21614500.000 4573515.000 145.000
21614600.000 4573362.500 92.500
21614525.000 4573835.000 163.750
21614400.000 4573675.000 197.500
21614750.000 4574187.500 103.750
21614600.000 4574300.000 170.000
21614300.000 4573830.000 250.000
21615075.000 4575122.500 37.500
21615150.000 4575225.000 31.250
21614550.000 4574462.500 123.750
21614625.000 4575007.500 2.500
21614250.000 4574290.000 135.000
21614175.000 4574912.500 6.250
21614100.000 4574050.000 175.000
21614000.000 4574167.500 137.500
21614200.000 4573935.000 212.500
21614300.000 4573820.000 250.000
21614400.000 4573667.500 197.500
21614000.000 4574165.000 137.500
21613900.000 4574280.000 100.000
21613950.000 4574875.000 27.500
21613600.000 4574670.000 77.500
21614325.000 4575115.000 -15.000
21614175.000 4575445.000 -15.000
21614400.000 4575485.000 -27.500
21613725.000 4574837.500 48.750
21613700.000 4574540.000 85.000
21613725.000 4574837.500 48.750
21613500.000 4574800.000 70.000
21613600.000 4574670.000 77.500
21614100.000 4575610.000 -15.000
21613800.000 4575695.000 0.000
21614125.000 4575927.500 28.750
21613450.000 4574985.000 66.250
21613500.000 4575557.500 37.500
21613400.000 4574917.500 91.250
21613400.000 4574917.500 91.250
21613200.000 4575152.500 133.750
21613350.000 4575355.000 58.750
21613100.000 4575270.000 155.000
21613300.000 4575540.000 55.000
21613500.000 4575780.000 15.000
21613650.000 4575737.500 7.500
21613225.000 4575680.000 20.000
21613375.000 4575860.000 -10.000
21613150.000 4575595.000 51.250
21613000.000 4575650.000 47.500
21613000.000 4575392.500 126.250
21612900.000 4575515.000 97.500
21612800.000 4575637.500 68.750
21612850.000 4575705.000 43.750
21613150.000 4575820.000 -15.000
21612700.000 4575760.000 40.000
21613075.000 4575960.000 -50.000
21613000.000 4576100.000 -85.000
21613150.000 4576077.500 -57.500
21613250.000 4575940.000 -35.000
21613200.000 4576390.000 30.000
21613400.000 4576200.000 27.500
21613300.000 4576055.000 -30.000
21613650.000 4576300.000 165.000
21613600.000 4576010.000 25.000
21613500.000 4576770.000 280.000
21613575.000 4576645.000 262.500
21613800.000 4576270.000 210.000
21613650.000 4576725.000 328.750
21613800.000 4576680.000 377.500
21613700.000 4576990.000 280.000
21613800.000 4576890.000 328.750
21613875.000 4576982.500 342.500
21613900.000 4576790.000 377.500
21614000.000 4577380.000 170.000
21614100.000 4577275.000 260.000
21614050.000 4576975.000 405.000
21614150.000 4577360.000 260.000
21614200.000 4577170.000 350.000
21614525.000 4577712.500 207.500
21614450.000 4577320.000 440.000
21614500.000 4577850.000 100.000
21614700.000 4577785.000 252.500
21614800.000 4577752.500 328.750
21614900.000 4578185.000 206.250
21614900.000 4577875.000 338.750
21614900.000 4578340.000 140.000
21615000.000 4578285.000 198.750
21615100.000 4578230.000 257.500
21615325.000 4577940.000 421.250
21615150.000 4577560.000 482.500
21615500.000 4577925.000 405.000
21615550.000 4578005.000 390.000
21615350.000 4577760.000 467.500
21615600.000 4577827.500 420.000
21615550.000 4577327.500 535.000
21615700.000 4577255.000 510.000
21615425.000 4577090.000 575.000
21616300.000 4577035.000 425.000
21616100.000 4576995.000 463.750
21616250.000 4576692.500 492.500
21616200.000 4576880.000 467.500
21616200.000 4576390.000 545.000
21616350.000 4576280.000 432.500
21616100.000 4576497.500 545.000
21616100.000 4576735.000 510.000
21615950.000 4576340.000 545.000
21616000.000 4576605.000 545.000
21616000.000 4576180.000 545.000
21615875.000 4576227.500 548.750
21616200.000 4576085.000 485.000
21616050.000 4575927.500 485.000
21616300.000 4575910.000 390.000
21616200.000 4575780.000 425.000
21615825.000 4575627.500 181.250
21615700.000 4575780.000 140.000
21615500.000 4575652.500 92.500
21615050.000 4575620.000 18.750
21615350.000 4575775.000 155.000
21615200.000 4576020.000 280.000
21615450.000 4575905.000 210.000
21615550.000 4576045.000 357.500
21615375.000 4576037.500 318.750
21614900.000 4576140.000 300.000
21615500.000 4576370.000 560.000
21614825.000 4575800.000 91.250
21614675.000 4576100.000 243.750
21614750.000 4575712.500 18.750
21614600.000 4575775.000 22.500
21615000.000 4575270.000 7.500
21614500.000 4575630.000 -5.000
21614250.000 4575547.500 -21.250
21614400.000 4575765.000 12.500
21614300.000 4575900.000 30.000
21614175.000 4575992.500 75.000
21614050.000 4576085.000 120.000
21614200.000 4576260.000 265.000
21614600.000 4576250.000 320.000
21614475.000 4576335.000 358.750
21614750.000 4576192.500 310.000
21614825.000 4576315.000 467.500
21614950.000 4576220.000 405.000
21614700.000 4576410.000 530.000
21614900.000 4576457.500 550.000
21614550.000 4576455.000 516.250
21614625.000 4576547.500 530.000
21614400.000 4576500.000 502.500
21614550.000 4576685.000 530.000
21614350.000 4576420.000 397.500
21614225.000 4576505.000 436.250
21614000.000 4576265.000 237.500
21614100.000 4576590.000 475.000
21614225.000 4576967.500 467.500
21614000.000 4576690.000 426.250
21615000.000 4576890.000 640.000
21614800.000 4576600.000 640.000
21614950.000 4577240.000 557.500
21615200.000 4577315.000 540.000
21615125.000 4576792.500 620.000
21615450.000 4576670.000 566.250
21615950.000 4576777.500 527.500
21615250.000 4576695.000 600.000
21615375.000 4576597.500 580.000
21615150.000 4576550.000 600.000
21614975.000 4576575.000 620.000
21615325.000 4576525.000 580.000
21615150.000 4576485.000 600.000
21615500.000 4576500.000 560.000
21615750.000 4576275.000 552.500
21615800.000 4576137.500 466.250
21613925.000 4576177.500 165.000
21613775.000 4575982.500 26.250
21613950.000 4575955.000 27.500
21613850.000 4575810.000 5.000
21613725.000 4575910.000 15.000
21613450.000 4576032.500 -2.500
21615800.000 4579430.000 580.000
21615825.000 4579327.500 608.750
21615800.000 4579420.000 580.000

POLYGONS 469 1876
3 94 90 92
3 251 203 197
3 211 92 93
3 90 91 87
3 214 115 213
3 190 184 188
3 91 101 88
3 74 72 75
3 67 62 65
3 20 167 165
3 61 60 58
3 162 238 165
3 178 177 179
3 89 90 87
3 116 255 127
3 255 256 127
3 14 12 15
3 233 231 228
3 203 251 206
3 167 20 21
3 122 120 118
3 72 70 73
3 112 106 105
3 227 229 226
3 223 222 221
3 125 126 128
3 120 122 121
3 175 171 172
3 149 146 253
3 206 249 248
3 243 245 247
3 53 42 39
3 189 186 187
3 236 237 246
3 42 41 39
3 206 248 205
3 32 29 180
3 88 102 85
3 89 87 81
3 205 208 207
3 238 162 236
3 236 162 229
3 176 173 175
3 238 172 165
3 43 38 42
3 235 233 234
3 213 115 108
3 156 152 154
3 92 211 95
3 111 105 110
3 25 23 174
3 254 255 116
3 29 30 178
3 166 163 164
3 225 223 248
3 162 160 234
3 252 149 253
3 129 126 257
3 43 44 36
3 108 105 107
3 56 54 182
3 220 228 230
3 2 3 10
3 137 134 135
3 54 53 39
3 27 176 26
3 236 229 237
3 198 200 199
3 240 241 179
3 168 169 19
3 215 219 218
3 13 24 2
3 188 250 191
3 84 83 81
3 249 241 244
3 90 73 68
3 229 227 237
3 231 232 218
3 235 155 151
3 202 200 197
3 93 199 211
3 109 95 211
3 258 17 14
3 198 199 65
3 204 206 205
3 173 174 23
3 48 49 33
3 205 223 221
3 103 98 99
3 34 52 6
3 33 34 6
3 179 242 178
3 61 194 60
3 70 71 73
3 0 1 2
3 209 207 210
3 25 4 22
3 231 230 228
3 56 55 54
3 14 15 259
3 31 37 35
3 220 230 218
3 231 233 232
3 89 82 78
3 58 185 61
3 59 58 60
3 7 3 5
3 71 70 67
3 39 32 40
3 74 69 72
3 149 233 151
3 64 60 195
3 224 219 222
3 221 208 205
3 152 147 150
3 0 4 25
3 230 231 218
3 65 196 198
3 113 115 116
3 45 44 46
3 219 226 220
3 181 180 178
3 185 184 192
3 44 43 42
3 95 107 97
3 119 123 118
3 58 56 185
3 172 238 239
3 199 68 65
3 92 90 68
3 64 196 66
3 37 31 32
3 215 115 214
3 7 11 9
3 79 80 81
3 157 154 158
3 83 84 86
3 126 125 119
3 225 222 223
3 217 232 252
3 241 242 179
3 224 237 227
3 124 125 132
3 47 33 36
3 78 75 73
3 161 159 162
3 183 187 182
3 62 60 63
3 180 183 182
3 42 46 44
3 118 113 116
3 219 220 218
3 1 3 2
3 5 1 0
3 176 27 173
3 172 171 165
3 157 160 159
3 80 82 81
3 68 67 65
3 57 58 59
3 19 18 16
3 75 78 77
3 160 158 234
3 46 42 53
3 240 243 241
3 136 131 128
3 109 108 107
3 252 254 217
3 26 28 0
3 132 130 133
3 135 131 136
3 255 254 253
3 24 13 22
3 251 191 250
3 62 59 60
3 250 189 242
3 202 203 204
3 93 92 68
3 7 9 3
3 255 253 256
3 236 240 239
3 159 160 162
3 168 166 169
3 79 76 77
3 203 202 197
3 76 75 77
3 96 99 98
3 229 228 226
3 177 30 26
3 109 213 108
3 112 113 106
3 233 149 232
3 209 109 211
3 51 52 34
3 167 21 166
3 104 99 96
3 45 36 44
3 200 198 197
3 17 168 19
3 217 218 232
3 194 192 195
3 196 65 66
3 155 235 158
3 247 245 248
3 138 141 140
3 27 174 173
3 81 87 85
3 4 2 24
3 83 79 81
3 215 216 117
3 243 240 245
3 21 20 18
3 113 120 121
3 0 25 26
3 140 144 143
3 18 13 16
3 116 127 119
3 115 113 112
3 29 32 31
3 152 153 154
3 145 142 143
3 240 179 239
3 98 100 91
3 171 20 165
3 17 19 16
3 39 40 54
3 53 54 55
3 80 77 78
3 252 253 254
3 68 71 67
3 55 56 58
3 249 250 242
3 133 130 131
3 87 91 88
3 260 258 259
3 192 61 185
3 28 26 29
3 91 96 98
3 117 254 116
3 13 12 14
3 21 18 19
3 152 150 153
3 90 89 78
3 128 126 129
3 57 53 55
3 101 91 100
3 82 89 81
3 259 258 14
3 31 35 33
3 233 228 229
3 4 24 22
3 4 0 2
3 21 170 166
3 105 108 110
3 155 158 154
3 8 5 52
3 35 36 33
3 146 149 145
3 86 84 85
3 146 126 256
3 97 105 104
3 137 135 138
3 28 31 6
3 139 138 140
3 147 142 145
3 248 223 205
3 201 202 204
3 134 131 135
3 58 57 55
3 237 225 246
3 222 219 221
3 63 66 65
3 225 248 246
3 79 77 80
3 117 216 217
3 240 246 245
3 30 177 178
3 106 113 114
3 133 131 134
3 106 104 105
3 91 90 96
3 76 74 75
3 138 135 136
3 166 170 169
3 142 140 143
3 199 201 209
3 219 215 208
3 104 103 99
3 20 13 18
3 60 194 195
3 136 129 141
3 242 181 178
3 132 125 130
3 13 20 22
3 115 117 116
3 192 193 195
3 127 126 119
3 199 200 201
3 47 48 33
3 219 224 226
3 256 126 127
3 199 93 68
3 180 40 32
3 130 125 128
3 186 182 187
3 175 173 171
3 184 190 192
3 25 27 26
3 182 184 56
3 215 218 216
3 209 210 212
3 249 206 250
3 16 13 14
3 175 172 177
3 143 146 145
3 181 242 187
3 238 236 239
3 109 212 213
3 49 50 34
3 14 17 16
3 142 139 140
3 251 197 193
3 249 244 247
3 105 111 112
3 88 101 102
3 41 37 39
3 131 130 128
3 196 64 193
3 12 10 9
3 8 7 5
3 39 37 32
3 148 147 145
3 157 158 160
3 37 38 35
3 197 196 193
3 148 145 149
3 143 144 257
3 128 129 136
3 75 72 73
3 176 175 177
3 196 197 198
3 235 234 158
3 69 62 67
3 240 236 246
3 80 78 82
3 106 114 104
3 215 214 210
3 153 150 151
3 35 43 36
3 169 170 19
3 90 94 96
3 97 96 94
3 181 183 180
3 166 168 163
3 204 203 206
3 126 146 257
3 49 34 33
3 141 144 140
3 129 257 144
3 241 243 244
3 209 212 109
3 12 13 10
3 153 151 155
3 201 204 205
3 20 171 23
3 156 157 159
3 220 226 228
3 51 8 52
3 31 33 6
3 207 201 205
3 22 20 23
3 188 186 189
3 163 161 164
3 234 233 229
3 212 214 213
3 193 190 251
3 164 167 166
3 180 29 178
3 81 85 84
3 174 27 25
3 162 234 229
3 201 207 209
3 184 185 56
3 3 1 5
3 156 159 161
3 73 90 78
3 249 247 248
3 22 23 25
3 161 163 156
3 10 13 2
3 38 41 42
3 64 66 63
3 156 154 157
3 251 250 206
3 153 155 154
3 28 29 31
3 143 257 146
3 244 243 247
3 70 69 67
3 248 245 246
3 141 129 144
3 123 124 122
3 87 88 85
3 188 184 186
3 172 239 177
3 165 161 162
3 45 47 36
3 179 177 239
3 195 193 64
3 115 215 117
3 97 104 96
3 165 164 161
3 9 11 12
3 250 188 189
3 232 149 252
3 221 219 208
3 151 148 149
3 64 63 60
3 180 54 40
3 136 141 138
3 151 150 148
3 71 68 73
3 215 210 207
3 164 165 167
3 254 117 217
3 50 51 34
3 118 123 122
3 192 194 61
3 54 180 182
3 3 9 10
3 119 125 123
3 212 210 214
3 189 187 242
3 192 190 193
3 108 115 112
3 225 224 222
3 147 148 150
3 199 209 211
3 6 52 5
3 216 218 217
3 107 95 109
3 6 5 0
3 30 29 26
3 62 63 65
3 241 249 242
3 138 139 137
3 35 38 43
3 171 173 23
3 125 124 123
3 69 70 72
3 37 41 38
3 190 188 191
3 94 92 95
3 253 146 256
3 95 97 94
3 105 97 107
3 237 224 225
3 170 21 19
3 190 191 251
3 176 177 26
3 186 184 182
3 208 215 207
3 118 120 113
3 181 187 183
3 200 202 201
3 233 235 151
3 28 6 0
3 224 227 226
3 119 118 116

POINT_DATA 261
COLOR_SCALARS GocadColor 4
0.819608 0.698116 0.549615 1
0.819608 0.698116 0.549615 1
0.819608 0.698116 0.549615 1
0.819608 0.698116 0.549615 1
0.819608 0.698116 0.549615 1
0.819608 0.698116 0.549615 1
0.819608 0.698116 0.549615 1
0.819608 0.698116 0.549615 1
0.819608 0.698116 0.549615 1
0.819608 0.698116 0.549615 1
0.819608 0.698116 0.549615 1
0.819608 0.698116 0.549615 1
0.819608 0.698116 0.549615 1
0.819608 0.698116 0.549615 1
0.819608 0.698116 0.549615 1
0.819608 0.698116 0.549615 1
0.819608 0.698116 0.549615 1
0.819608 0.698116 0.549615 1
0.819608 0.698116 0.549615 1
0.819608 0.698116 0.549615 1
0.819608 0.698116 0.549615 1
0.819608 0.698116 0.549615 1
0.819608 0.698116 0.549615 1
0.819608 0.698116 0.549615 1
0.819608 0.698116 0.549615 1
0.819608 0.698116 0.549615 1
0.819608 0.698116 0.549615 1
0.819608 0.698116 0.549615 1
0.819608 0.698116 0.549615 1
0.819608 0.698116 0.549615 1
0.819608 0.698116 0.549615 1
0.819608 0.698116 0.549615 1
0.819608 0.698116 0.549615 1
0.819608 0.698116 0.549615 1
0.819608 0.698116 0.549615 1
0.819608 0.698116 0.549615 1
0.819608 0.698116 0.549615 1
0.819608 0.698116 0.549615 1
0.819608 0.698116 0.549615 1
0.819608 0.698116 0.549615 1
0.819608 0.698116 0.549615 1
0.819608 0.698116 0.549615 1
0.819608 0.698116 0.549615 1
0.819608 0.698116 0.549615 1
0.819608 0.698116 0.549615 1
0.819608 0.698116 0.549615 1
0.819608 0.698116 0.549615 1
0.819608 0.698116 0.549615 1
0.819608 0.698116 0.549615 1
0.819608 0.698116 0.549615 1
0.819608 0.698116 0.549615 1
0.819608 0.698116 0.549615 1
0.819608 0.698116 0.549615 1
0.819608 0.698116 0.549615 1
0.819608 0.698116 0.549615 1
0.819608 0.698116 0.549615 1
0.819608 0.698116 0.549615 1
0.819608 0.698116 0.549615 1
0.819608 0.698116 0.549615 1
0.819608 0.698116 0.549615 1
0.819608 0.698116 0.549615 1
0.819608 0.698116 0.549615 1
0.819608 0.698116 0.549615 1
0.819608 0.698116 0.549615 1
0.819608 0.698116 0.549615 1
0.819608 0.698116 0.549615 1
0.819608 0.698116 0.549615 1
0.819608 0.698116 0.549615 1
0.819608 0.698116 0.549615 1
0.819608 0.698116 0.549615 1
0.819608 0.698116 0.549615 1
0.819608 0.698116 0.549615 1
0.819608 0.698116 0.549615 1
0.819608 0.698116 0.549615 1
0.819608 0.698116 0.549615 1
0.819608 0.698116 0.549615 1
0.819608 0.698116 0.549615 1
0.819608 0.698116 0.549615 1
0.819608 0.698116 0.549615 1
0.819608 0.698116 0.549615 1
0.819608 0.698116 0.549615 1
0.819608 0.698116 0.549615 1
0.819608 0.698116 0.549615 1
0.819608 0.698116 0.549615 1
0.819608 0.698116 0.549615 1
0.819608 0.698116 0.549615 1
0.819608 0.698116 0.549615 1
0.819608 0.698116 0.549615 1
0.819608 0.698116 0.549615 1
0.819608 0.698116 0.549615 1
0.819608 0.698116 0.549615 1
0.819608 0.698116 0.549615 1
0.819608 0.698116 0.549615 1
0.819608 0.698116 0.549615 1
0.819608 0.698116 0.549615 1
0.819608 0.698116 0.549615 1
0.819608 0.698116 0.549615 1
0.819608 0.698116 0.549615 1
0.819608 0.698116 0.549615 1
0.819608 0.698116 0.549615 1
0.819608 0.698116 0.549615 1
0.819608 0.698116 0.549615 1
0.819608 0.698116 0.549615 1
0.819608 0.698116 0.549615 1
0.819608 0.698116 0.549615 1
0.819608 0.698116 0.549615 1
0.819608 0.698116 0.549615 1
0.819608 0.698116 0.549615 1
0.819608 0.698116 0.549615 1
0.819608 0.698116 0.549615 1
0.819608 0.698116 0.549615 1
0.819608 0.698116 0.549615 1
0.819608 0.698116 0.549615 1
0.819608 0.698116 0.549615 1
0.819608 0.698116 0.549615 1
0.819608 0.698116 0.549615 1
0.819608 0.698116 0.549615 1
0.819608 0.698116 0.549615 1
0.819608 0.698116 0.549615 1
0.819608 0.698116 0.549615 1
0.819608 0.698116 0.549615 1
0.819608 0.698116 0.549615 1
0.819608 0.698116 0.549615 1
0.819608 0.698116 0.549615 1
0.819608 0.698116 0.549615 1
0.819608 0.698116 0.549615 1
0.819608 0.698116 0.549615 1
0.819608 0.698116 0.549615 1
0.819608 0.698116 0.549615 1
0.819608 0.698116 0.549615 1
0.819608 0.698116 0.549615 1
0.819608 0.698116 0.549615 1
0.819608 0.698116 0.549615 1
0.819608 0.698116 0.549615 1
0.819608 0.698116 0.549615 1
0.819608 0.698116 0.549615 1
0.819608 0.698116 0.549615 1
0.819608 0.698116 0.549615 1
0.819608 0.698116 0.549615 1
0.819608 0.698116 0.549615 1
0.819608 0.698116 0.549615 1
0.819608 0.698116 0.549615 1
0.819608 0.698116 0.549615 1
0.819608 0.698116 0.549615 1
0.819608 0.698116 0.549615 1
0.819608 0.698116 0.549615 1
0.819608 0.698116 0.549615 1
0.819608 0.698116 0.549615 1
0.819608 0.698116 0.549615 1
0.819608 0.698116 0.549615 1
0.819608 0.698116 0.549615 1
0.819608 0.698116 0.549615 1
0.819608 0.698116 0.549615 1
0.819608 0.698116 0.549615 1
0.819608 0.698116 0.549615 1
0.819608 0.698116 0.549615 1
0.819608 0.698116 0.549615 1
0.819608 0.698116 0.549615 1
0.819608 0.698116 0.549615 1
0.819608 0.698116 0.549615 1
0.819608 0.698116 0.549615 1
0.819608 0.698116 0.549615 1
0.819608 0.698116 0.549615 1
0.819608 0.698116 0.549615 1
0.819608 0.698116 0.549615 1
0.819608 0.698116 0.549615 1
0.819608 0.698116 0.549615 1
0.819608 0.698116 0.549615 1
0.819608 0.698116 0.549615 1
0.819608 0.698116 0.549615 1
0.819608 0.698116 0.549615 1
0.819608 0.698116 0.549615 1
0.819608 0.698116 0.549615 1
0.819608 0.698116 0.549615 1
0.819608 0.698116 0.549615 1
0.819608 0.698116 0.549615 1
0.819608 0.698116 0.549615 1
0.819608 0.698116 0.549615 1
0.819608 0.698116 0.549615 1
0.819608 0.698116 0.549615 1
0.819608 0.698116 0.549615 1
0.819608 0.698116 0.549615 1
0.819608 0.698116 0.549615 1
0.819608 0.698116 0.549615 1
0.819608 0.698116 0.549615 1
0.819608 0.698116 0.549615 1
0.819608 0.698116 0.549615 1
0.819608 0.698116 0.549615 1
0.819608 0.698116 0.549615 1
0.819608 0.698116 0.549615 1
0.819608 0.698116 0.549615 1
0.819608 0.698116 0.549615 1
0.819608 0.698116 0.549615 1
0.819608 0.698116 0.549615 1
0.819608 0.698116 0.549615 1
0.819608 0.698116 0.549615 1
0.819608 0.698116 0.549615 1
0.819608 0.698116 0.549615 1
0.819608 0.698116 0.549615 1
0.819608 0.698116 0.549615 1
0.819608 0.698116 0.549615 1
0.819608 0.698116 0.549615 1
0.819608 0.698116 0.549615 1
0.819608 0.698116 0.549615 1
0.819608 0.698116 0.549615 1
0.819608 0.698116 0.549615 1
0.819608 0.698116 0.549615 1
0.819608 0.698116 0.549615 1
0.819608 0.698116 0.549615 1
0.819608 0.698116 0.549615 1
0.819608 0.698116 0.549615 1
0.819608 0.698116 0.549615 1
0.819608 0.698116 0.549615 1
0.819608 0.698116 0.549615 1
0.819608 0.698116 0.549615 1
0.819608 0.698116 0.549615 1
0.819608 0.698116 0.549615 1
0.819608 0.698116 0.549615 1
0.819608 0.698116 0.549615 1
0.819608 0.698116 0.549615 1
0.819608 0.698116 0.549615 1
0.819608 0.698116 0.549615 1
0.819608 0.698116 0.549615 1
0.819608 0.698116 0.549615 1
0.819608 0.698116 0.549615 1
0.819608 0.698116 0.549615 1
0.819608 0.698116 0.549615 1
0.819608 0.698116 0.549615 1
0.819608 0.698116 0.549615 1
0.819608 0.698116 0.549615 1
0.819608 0.698116 0.549615 1
0.819608 0.698116 0.549615 1
0.819608 0.698116 0.549615 1
0.819608 0.698116 0.549615 1
0.819608 0.698116 0.549615 1
0.819608 0.698116 0.549615 1
0.819608 0.698116 0.549615 1
0.819608 0.698116 0.549615 1
0.819608 0.698116 0.549615 1
0.819608 0.698116 0.549615 1
0.819608 0.698116 0.549615 1
0.819608 0.698116 0.549615 1
0.819608 0.698116 0.549615 1
0.819608 0.698116 0.549615 1
0.819608 0.698116 0.549615 1
0.819608 0.698116 0.549615 1
0.819608 0.698116 0.549615 1
0.819608 0.698116 0.549615 1
0.819608 0.698116 0.549615 1
0.819608 0.698116 0.549615 1
0.819608 0.698116 0.549615 1
0.819608 0.698116 0.549615 1
0.819608 0.698116 0.549615 1
0.819608 0.698116 0.549615 1
0.819608 0.698116 0.549615 1
0.819608 0.698116 0.549615 1
0.819608 0.698116 0.549615 1
0.819608 0.698116 0.549615 1
0.819608 0.698116 0.549615 1
0.819608 0.698116 0.549615 1
0.819608 0.698116 0.549615 1

