# vtk DataFile Version 3.0
Gocad TSurf to VTK
ASCII
DATASET POLYDATA
POINTS 436 float
21614050.000 4581162.500 -875.000
21614000.000 4581065.000 -885.000
21614000.000 4581152.500 -867.500
21613900.000 4581055.000 -857.500
21614000.000 4581240.000 -850.000
21614000.000 4580977.500 -902.500
21614200.000 4580845.000 -963.750
21613700.000 4581020.000 -822.500
21613950.000 4580685.000 -912.500
21613700.000 4581115.000 -808.750
21613500.000 4581200.000 -880.000
21613850.000 4581137.500 -826.250
21613800.000 4581375.000 -798.750
21614050.000 4581550.000 -885.000
21613800.000 4581530.000 -802.500
21614375.000 4581415.000 -930.000
21614325.000 4581725.000 -980.000
21614475.000 4581050.000 -897.500
21614625.000 4581440.000 -897.500
21614250.000 4581012.500 -938.750
21614500.000 4580980.000 -895.000
21614500.000 4580905.000 -936.250
21614425.000 4580742.500 -1032.500
21614575.000 4580927.500 -922.500
21614800.000 4580972.500 -795.000
21614500.000 4580830.000 -977.500
21614725.000 4580822.500 -977.500
21614400.000 4580560.000 -1035.000
21614700.000 4580645.000 -760.000
21614200.000 4580760.000 -977.500
21614150.000 4580395.000 -982.500
21613900.000 4580480.000 -905.000
21613800.000 4580655.000 -877.500
21613700.000 4580530.000 -891.250
21613750.000 4580742.500 -863.750
21613700.000 4580630.000 -877.500
21613600.000 4580610.000 -877.500
21613500.000 4580790.000 -850.000
21613350.000 4580437.500 -977.500
21613300.000 4580320.000 -1020.000
21613075.000 4580380.000 -1088.750
21612950.000 4580885.000 -1087.500
21612100.000 4580957.500 -1452.500
21611725.000 4580215.000 -1610.000
21612500.000 4581425.000 -1345.000
21610600.000 4580845.000 -2030.000
21613375.000 4581340.000 -956.250
21613000.000 4581760.000 -1185.000
21613500.000 4581352.500 -893.750
21613650.000 4581360.000 -830.000
21613500.000 4581505.000 -907.500
21613550.000 4581660.000 -900.000
21613600.000 4581510.000 -865.000
21613700.000 4581675.000 -806.250
21613700.000 4581830.000 -810.000
21613700.000 4581520.000 -802.500
21613800.000 4581840.000 -810.000
21614075.000 4581705.000 -902.500
21614075.000 4582007.500 -961.250
21614300.000 4581880.000 -1005.000
21613700.000 4581975.000 -865.000
21613900.000 4582135.000 -975.000
21613500.000 4581810.000 -935.000
21613450.000 4581947.500 -927.500
21613375.000 4581937.500 -958.750
21612250.000 4581807.500 -1516.250
21613400.000 4582085.000 -920.000
21613350.000 4582222.500 -912.500
21613500.000 4582095.000 -920.000
21613600.000 4582105.000 -857.500
21613500.000 4582237.500 -912.500
21613750.000 4582125.000 -920.000
21613725.000 4582267.500 -975.000
21614025.000 4582302.500 -1043.750
21614000.000 4582450.000 -1085.000
21614050.000 4582155.000 -1002.500
21614150.000 4582165.000 -1045.000
21614400.000 4582340.000 -1005.000
21614350.000 4582185.000 -1005.000
21614400.000 4582040.000 -1005.000
21614550.000 4582205.000 -955.000
21614700.000 4582377.500 -833.750
21614700.000 4582530.000 -810.000
21614700.000 4582225.000 -857.500
21614625.000 4582062.500 -930.000
21614750.000 4582380.000 -820.000
21614800.000 4582230.000 -830.000
21614700.000 4582072.500 -881.250
21614850.000 4582080.000 -840.000
21614700.000 4581920.000 -905.000
21614900.000 4581930.000 -850.000
21614875.000 4581770.000 -832.500
21614725.000 4581762.500 -873.750
21614850.000 4581610.000 -815.000
21614400.000 4581890.000 -1005.000
21614750.000 4581605.000 -842.500
21614775.000 4581447.500 -811.250
21614825.000 4581450.000 -797.500
21614800.000 4581290.000 -780.000
21614575.000 4581205.000 -895.000
21614800.000 4581227.500 -766.250
21614750.000 4581100.000 -767.500
21614800.000 4581165.000 -752.500
21614800.000 4581102.500 -738.750
21614800.000 4581040.000 -725.000
21614400.000 4582490.000 -1005.000
21614450.000 4582667.500 -960.000
21614300.000 4582800.000 -1047.500
21614675.000 4582697.500 -813.750
21614500.000 4582845.000 -915.000
21614650.000 4582865.000 -817.500
21614550.000 4583022.500 -870.000
21614200.000 4583110.000 -1090.000
21614625.000 4583032.500 -821.250
21614600.000 4583200.000 -825.000
21614475.000 4583332.500 -835.000
21614125.000 4583252.500 -1061.250
21614575.000 4583352.500 -778.750
21614550.000 4583505.000 -732.500
21614525.000 4583657.500 -686.250
21614225.000 4583597.500 -855.000
21614150.000 4583420.000 -977.500
21614500.000 4583810.000 -640.000
21614100.000 4583730.000 -865.000
21614125.000 4583575.000 -921.250
21614150.000 4583880.000 -822.500
21614050.000 4583855.000 -843.750
21614450.000 4583940.000 -653.750
21614200.000 4584030.000 -780.000
21614450.000 4583940.000 -651.250
21614400.000 4584070.000 -662.500
21614400.000 4584070.000 -667.500
21614350.000 4584200.000 -673.750
21614250.000 4584180.000 -737.500
21613900.000 4584230.000 -780.000
21614350.000 4584200.000 -681.250
21614300.000 4584330.000 -685.000
21614275.000 4584475.000 -688.750
21613950.000 4584540.000 -780.000
21614275.000 4584475.000 -681.250
21614250.000 4584620.000 -682.500
21614150.000 4584590.000 -737.500
21614250.000 4584620.000 -677.500
21614225.000 4584765.000 -676.250
21614225.000 4584765.000 -673.750
21614200.000 4584910.000 -670.000
21614075.000 4584720.000 -758.750
21614000.000 4584850.000 -780.000
21613975.000 4584695.000 -780.000
21613800.000 4584770.000 -795.000
21613825.000 4584635.000 -791.250
21613625.000 4584575.000 -786.250
21613850.000 4584500.000 -787.500
21613750.000 4584470.000 -772.500
21613875.000 4584365.000 -783.750
21613675.000 4584305.000 -828.750
21613700.000 4584170.000 -850.000
21613600.000 4584425.000 -830.000
21613600.000 4584287.500 -853.750
21613550.000 4584552.500 -820.000
21613500.000 4584680.000 -810.000
21613600.000 4584710.000 -765.000
21613300.000 4584640.000 -865.000
21612850.000 4584107.500 -1536.250
21612400.000 4584370.000 -1815.000
21611425.000 4583952.500 -2866.250
21612050.000 4583667.500 -2216.250
21611000.000 4583960.000 -3235.000
21610875.000 4583810.000 -3336.250
21611000.000 4583960.000 -3265.000
21610625.000 4583510.000 -3538.750
21610750.000 4583660.000 -3452.500
21610875.000 4583802.500 -3370.000
21610625.000 4583507.500 -3550.000
21610500.000 4583360.000 -3640.000
21611400.000 4583405.000 -2672.500
21610400.000 4583240.000 -3626.250
21613150.000 4583645.000 -1088.750
21613300.000 4583550.000 -865.000
21610100.000 4582880.000 -3585.000
21613400.000 4583705.000 -861.250
21613550.000 4583875.000 -850.000
21613325.000 4583400.000 -872.500
21613625.000 4583152.500 -950.000
21613250.000 4583235.000 -892.500
21613400.000 4583107.500 -883.750
21612475.000 4582627.500 -1303.750
21613200.000 4582920.000 -920.000
21610650.000 4582842.500 -3037.500
21610100.000 4582260.000 -2665.000
21610100.000 4582725.000 -3355.000
21610100.000 4582570.000 -3125.000
21610100.000 4582725.000 -3355.000
21610100.000 4582415.000 -2895.000
21611150.000 4582340.000 -1952.500
21612825.000 4582422.500 -1121.250
21610075.000 4582182.500 -2626.250
21610050.000 4582105.000 -2587.500
21610075.000 4582182.500 -2626.250
21610025.000 4582027.500 -2548.750
21610000.000 4581950.000 -2510.000
21610025.000 4582027.500 -2548.750
21613000.000 4582180.000 -1068.750
21610750.000 4581902.500 -2178.750
21610000.000 4581835.000 -2451.250
21610000.000 4581720.000 -2392.500
21610000.000 4581605.000 -2333.750
21610000.000 4581490.000 -2275.000
21610500.000 4581390.000 -2082.500
21610000.000 4581215.000 -2275.000
21610000.000 4581077.500 -2275.000
21610000.000 4581215.000 -2275.000
21610000.000 4580940.000 -2275.000
21609925.000 4580715.000 -2292.500
21609775.000 4580265.000 -2327.500
21609700.000 4580040.000 -2345.000
21611050.000 4579870.000 -1925.000
21609700.000 4579180.000 -2555.000
21609700.000 4579610.000 -2450.000
21610075.000 4579107.500 -2397.500
21612600.000 4579755.000 -1382.500
21609700.000 4578940.000 -2470.000
21609700.000 4578700.000 -2385.000
21610825.000 4578962.500 -2082.500
21611350.000 4579187.500 -1947.500
21609700.000 4578460.000 -2300.000
21609700.000 4578210.000 -2215.000
21609750.000 4577950.000 -2222.500
21609950.000 4578077.500 -2181.250
21611075.000 4578580.000 -1963.750
21609800.000 4577680.000 -2230.000
21609850.000 4577410.000 -2237.500
21610700.000 4577650.000 -2080.000
21609850.000 4577407.500 -2237.500
21609900.000 4577140.000 -2245.000
21610275.000 4577217.500 -2172.500
21611050.000 4577550.000 -2017.500
21609875.000 4576945.000 -2245.000
21609850.000 4576750.000 -2245.000
21611025.000 4577372.500 -2027.500
21609825.000 4576555.000 -2245.000
21609800.000 4576360.000 -2245.000
21611400.000 4577450.000 -1955.000
21611225.000 4577500.000 -1986.250
21610200.000 4576395.000 -2190.000
21611400.000 4576737.500 -2007.500
21609825.000 4576097.500 -2377.500
21609825.000 4576097.500 -2377.500
21609850.000 4575835.000 -2510.000
21609875.000 4575572.500 -2642.500
21611100.000 4575952.500 -2196.250
21609900.000 4575310.000 -2775.000
21609975.000 4575060.000 -2758.750
21610800.000 4575405.000 -2367.500
21610125.000 4574560.000 -2726.250
21610200.000 4574310.000 -2710.000
21612100.000 4576190.000 -1705.000
21610600.000 4574427.500 -2566.250
21611950.000 4575485.000 -1920.000
21610550.000 4574030.000 -2652.500
21611400.000 4574662.500 -2278.750
21610250.000 4574017.500 -2751.250
21610300.000 4573725.000 -2792.500
21610350.000 4573432.500 -2833.750
21610900.000 4573750.000 -2595.000
21610400.000 4573140.000 -2875.000
21610900.000 4573442.500 -2538.750
21611125.000 4573735.000 -2416.250
21610525.000 4572985.000 -2748.750
21610425.000 4572832.500 -2808.750
21610775.000 4572675.000 -2496.250
21611575.000 4573705.000 -2058.750
21610450.000 4572525.000 -2742.500
21610475.000 4572217.500 -2676.250
21610900.000 4572520.000 -2370.000
21610500.000 4571910.000 -2610.000
21611800.000 4573690.000 -1880.000
21611750.000 4573340.000 -1901.250
21611650.000 4572640.000 -1943.750
21611600.000 4572290.000 -1965.000
21611075.000 4572465.000 -2268.750
21611425.000 4572355.000 -2066.250
21610925.000 4572255.000 -2370.000
21610950.000 4571990.000 -2370.000
21610625.000 4571797.500 -2550.000
21610875.000 4571572.500 -2430.000
21611000.000 4571460.000 -2370.000
[...]
POINT_DATA 436
COLOR_SCALARS GocadColor 4
1 0.498039 0.313726 1
1 0.498039 0.313726 1
1 0.498039 0.313726 1
1 0.498039 0.313726 1
1 0.498039 0.313726 1
1 0.498039 0.313726 1
1 0.498039 0.313726 1
1 0.498039 0.313726 1
1 0.498039 0.313726 1
1 0.498039 0.313726 1
1 0.498039 0.313726 1
1 0.498039 0.313726 1
1 0.498039 0.313726 1
1 0.498039 0.313726 1
1 0.498039 0.313726 1
1 0.498039 0.313726 1
1 0.498039 0.313726 1
1 0.498039 0.313726 1
1 0.498039 0.313726 1
1 0.498039 0.313726 1
1 0.498039 0.313726 1
1 0.498039 0.313726 1
1 0.498039 0.313726 1
1 0.498039 0.313726 1
1 0.498039 0.313726 1
1 0.498039 0.313726 1
1 0.498039 0.313726 1
1 0.498039 0.313726 1
1 0.498039 0.313726 1
1 0.498039 0.313726 1
1 0.498039 0.313726 1
1 0.498039 0.313726 1
1 0.498039 0.313726 1
1 0.498039 0.313726 1
1 0.498039 0.313726 1
1 0.498039 0.313726 1
1 0.498039 0.313726 1
1 0.498039 0.313726 1
1 0.498039 0.313726 1
1 0.498039 0.313726 1
1 0.498039 0.313726 1
1 0.498039 0.313726 1
1 0.498039 0.313726 1
1 0.498039 0.313726 1
1 0.498039 0.313726 1
1 0.498039 0.313726 1
1 0.498039 0.313726 1
1 0.498039 0.313726 1
1 0.498039 0.313726 1
1 0.498039 0.313726 1
1 0.498039 0.313726 1
1 0.498039 0.313726 1
1 0.498039 0.313726 1
1 0.498039 0.313726 1
1 0.498039 0.313726 1
1 0.498039 0.313726 1
1 0.498039 0.313726 1
1 0.498039 0.313726 1
1 0.498039 0.313726 1
1 0.498039 0.313726 1
1 0.498039 0.313726 1
1 0.498039 0.313726 1
1 0.498039 0.313726 1
1 0.498039 0.313726 1
1 0.498039 0.313726 1
1 0.498039 0.313726 1
1 0.498039 0.313726 1
1 0.498039 0.313726 1
1 0.498039 0.313726 1
1 0.498039 0.313726 1
1 0.498039 0.313726 1
1 0.498039 0.313726 1
1 0.498039 0.313726 1
1 0.498039 0.313726 1
1 0.498039 0.313726 1
1 0.498039 0.313726 1
1 0.498039 0.313726 1
1 0.498039 0.313726 1
1 0.498039 0.313726 1
1 0.498039 0.313726 1
1 0.498039 0.313726 1
1 0.498039 0.313726 1
1 0.498039 0.313726 1
1 0.498039 0.313726 1
1 0.498039 0.313726 1
1 0.498039 0.313726 1
1 0.498039 0.313726 1
1 0.498039 0.313726 1
1 0.498039 0.313726 1
1 0.498039 0.313726 1
1 0.498039 0.313726 1
1 0.498039 0.313726 1
1 0.498039 0.313726 1
1 0.498039 0.313726 1
1 0.498039 0.313726 1
1 0.498039 0.313726 1
1 0.498039 0.313726 1
1 0.498039 0.313726 1
1 0.498039 0.313726 1
1 0.498039 0.313726 1
1 0.498039 0.313726 1
1 0.498039 0.313726 1
1 0.498039 0.313726 1
1 0.498039 0.313726 1
1 0.498039 0.313726 1
1 0.498039 0.313726 1
1 0.498039 0.313726 1
1 0.498039 0.313726 1
1 0.498039 0.313726 1
1 0.498039 0.313726 1
1 0.498039 0.313726 1
1 0.498039 0.313726 1
1 0.498039 0.313726 1
1 0.498039 0.313726 1
1 0.498039 0.313726 1
1 0.498039 0.313726 1
1 0.498039 0.313726 1
1 0.498039 0.313726 1
1 0.498039 0.313726 1
1 0.498039 0.313726 1
1 0.498039 0.313726 1
1 0.498039 0.313726 1
1 0.498039 0.313726 1
1 0.498039 0.313726 1
1 0.498039 0.313726 1
1 0.498039 0.313726 1
1 0.498039 0.313726 1
1 0.498039 0.313726 1
1 0.498039 0.313726 1
1 0.498039 0.313726 1
1 0.498039 0.313726 1
1 0.498039 0.313726 1
1 0.498039 0.313726 1
1 0.498039 0.313726 1
1 0.498039 0.313726 1
1 0.498039 0.313726 1
1 0.498039 0.313726 1
1 0.498039 0.313726 1
1 0.498039 0.313726 1
1 0.498039 0.313726 1
1 0.498039 0.313726 1
1 0.498039 0.313726 1
1 0.498039 0.313726 1
1 0.498039 0.313726 1
1 0.498039 0.313726 1
1 0.498039 0.313726 1
1 0.498039 0.313726 1
1 0.498039 0.313726 1
1 0.498039 0.313726 1
1 0.498039 0.313726 1
1 0.498039 0.313726 1
1 0.498039 0.313726 1
1 0.498039 0.313726 1
1 0.498039 0.313726 1
1 0.498039 0.313726 1
1 0.498039 0.313726 1
1 0.498039 0.313726 1
1 0.498039 0.313726 1
1 0.498039 0.313726 1
1 0.498039 0.313726 1
1 0.498039 0.313726 1
1 0.498039 0.313726 1
1 0.498039 0.313726 1
1 0.498039 0.313726 1
1 0.498039 0.313726 1
1 0.498039 0.313726 1
1 0.498039 0.313726 1
1 0.498039 0.313726 1
1 0.498039 0.313726 1
1 0.498039 0.313726 1
1 0.498039 0.313726 1
1 0.498039 0.313726 1
1 0.498039 0.313726 1
1 0.498039 0.313726 1
1 0.498039 0.313726 1
1 0.498039 0.313726 1
1 0.498039 0.313726 1
1 0.498039 0.313726 1
1 0.498039 0.313726 1
1 0.498039 0.313726 1
1 0.498039 0.313726 1
1 0.498039 0.313726 1
1 0.498039 0.313726 1
1 0.498039 0.313726 1
1 0.498039 0.313726 1
1 0.498039 0.313726 1
1 0.498039 0.313726 1
1 0.498039 0.313726 1
1 0.498039 0.313726 1
1 0.498039 0.313726 1
1 0.498039 0.313726 1
1 0.498039 0.313726 1
1 0.498039 0.313726 1
1 0.498039 0.313726 1
1 0.498039 0.313726 1
1 0.498039 0.313726 1
1 0.498039 0.313726 1
1 0.498039 0.313726 1
1 0.498039 0.313726 1
1 0.498039 0.313726 1
1 0.498039 0.313726 1
1 0.498039 0.313726 1
1 0.498039 0.313726 1
1 0.498039 0.313726 1
1 0.498039 0.313726 1
1 0.498039 0.313726 1
1 0.498039 0.313726 1
1 0.498039 0.313726 1
1 0.498039 0.313726 1
1 0.498039 0.313726 1
1 0.498039 0.313726 1
1 0.498039 0.313726 1
1 0.498039 0.313726 1
1 0.498039 0.313726 1
1 0.498039 0.313726 1
1 0.498039 0.313726 1
1 0.498039 0.313726 1
1 0.498039 0.313726 1
1 0.498039 0.313726 1
1 0.498039 0.313726 1
1 0.498039 0.313726 1
1 0.498039 0.313726 1
1 0.498039 0.313726 1
1 0.498039 0.313726 1
1 0.498039 0.313726 1
1 0.498039 0.313726 1
1 0.498039 0.313726 1
1 0.498039 0.313726 1
1 0.498039 0.313726 1
1 0.498039 0.313726 1
1 0.498039 0.313726 1
1 0.498039 0.313726 1
1 0.498039 0.313726 1
1 0.498039 0.313726 1
1 0.498039 0.313726 1
1 0.498039 0.313726 1
1 0.498039 0.313726 1
1 0.498039 0.313726 1
1 0.498039 0.313726 1
1 0.498039 0.313726 1
1 0.498039 0.313726 1
1 0.498039 0.313726 1
1 0.498039 0.313726 1
1 0.498039 0.313726 1
1 0.498039 0.313726 1
1 0.498039 0.313726 1
1 0.498039 0.313726 1
1 0.498039 0.313726 1
1 0.498039 0.313726 1
1 0.498039 0.313726 1
1 0.498039 0.313726 1
1 0.498039 0.313726 1
1 0.498039 0.313726 1
1 0.498039 0.313726 1
1 0.498039 0.313726 1
1 0.498039 0.313726 1
1 0.498039 0.313726 1
1 0.498039 0.313726 1
1 0.498039 0.313726 1
1 0.498039 0.313726 1
1 0.498039 0.313726 1
1 0.498039 0.313726 1
1 0.498039 0.313726 1
1 0.498039 0.313726 1
1 0.498039 0.313726 1
1 0.498039 0.313726 1
1 0.498039 0.313726 1
1 0.498039 0.313726 1
1 0.498039 0.313726 1
1 0.498039 0.313726 1
1 0.498039 0.313726 1
1 0.498039 0.313726 1
1 0.498039 0.313726 1
1 0.498039 0.313726 1
1 0.498039 0.313726 1
1 0.498039 0.313726 1
1 0.498039 0.313726 1
1 0.498039 0.313726 1
1 0.498039 0.313726 1
1 0.498039 0.313726 1
1 0.498039 0.313726 1
1 0.498039 0.313726 1
1 0.498039 0.313726 1
1 0.498039 0.313726 1
1 0.498039 0.313726 1
1 0.498039 0.313726 1
1 0.498039 0.313726 1
1 0.498039 0.313726 1
1 0.498039 0.313726 1
1 0.498039 0.313726 1
1 0.498039 0.313726 1
1 0.498039 0.313726 1
1 0.498039 0.313726 1
1 0.498039 0.313726 1
1 0.498039 0.313726 1
1 0.498039 0.313726 1
1 0.498039 0.313726 1
1 0.498039 0.313726 1
1 0.498039 0.313726 1
1 0.498039 0.313726 1
1 0.498039 0.313726 1
1 0.498039 0.313726 1
1 0.498039 0.313726 1
1 0.498039 0.313726 1
1 0.498039 0.313726 1
1 0.498039 0.313726 1
1 0.498039 0.313726 1
1 0.498039 0.313726 1
1 0.498039 0.313726 1
1 0.498039 0.313726 1
1 0.498039 0.313726 1
1 0.498039 0.313726 1
1 0.498039 0.313726 1
1 0.498039 0.313726 1
1 0.498039 0.313726 1
1 0.498039 0.313726 1
1 0.498039 0.313726 1
1 0.498039 0.313726 1
1 0.498039 0.313726 1
1 0.498039 0.313726 1
1 0.498039 0.313726 1
1 0.498039 0.313726 1
1 0.498039 0.313726 1
1 0.498039 0.313726 1
1 0.498039 0.313726 1
1 0.498039 0.313726 1
1 0.498039 0.313726 1
1 0.498039 0.313726 1
1 0.498039 0.313726 1
1 0.498039 0.313726 1
1 0.498039 0.313726 1
1 0.498039 0.313726 1
1 0.498039 0.313726 1
1 0.498039 0.313726 1
1 0.498039 0.313726 1
1 0.498039 0.313726 1
1 0.498039 0.313726 1
1 0.498039 0.313726 1
1 0.498039 0.313726 1
1 0.498039 0.313726 1
1 0.498039 0.313726 1
1 0.498039 0.313726 1
1 0.498039 0.313726 1
1 0.498039 0.313726 1
1 0.498039 0.313726 1
1 0.498039 0.313726 1
1 0.498039 0.313726 1
1 0.498039 0.313726 1
1 0.498039 0.313726 1
1 0.498039 0.313726 1
1 0.498039 0.313726 1
1 0.498039 0.313726 1
1 0.498039 0.313726 1
1 0.498039 0.313726 1
1 0.498039 0.313726 1
1 0.498039 0.313726 1
1 0.498039 0.313726 1
1 0.498039 0.313726 1
1 0.498039 0.313726 1
1 0.498039 0.313726 1
1 0.498039 0.313726 1
1 0.498039 0.313726 1
1 0.498039 0.313726 1
1 0.498039 0.313726 1
1 0.498039 0.313726 1
1 0.498039 0.313726 1
1 0.498039 0.313726 1
1 0.498039 0.313726 1
1 0.498039 0.313726 1
1 0.498039 0.313726 1
1 0.498039 0.313726 1
1 0.498039 0.313726 1
1 0.498039 0.313726 1
1 0.498039 0.313726 1
1 0.498039 0.313726 1
1 0.498039 0.313726 1
1 0.498039 0.313726 1
1 0.498039 0.313726 1
1 0.498039 0.313726 1
1 0.498039 0.313726 1
1 0.498039 0.313726 1
1 0.498039 0.313726 1
1 0.498039 0.313726 1
1 0.498039 0.313726 1
1 0.498039 0.313726 1
1 0.498039 0.313726 1
1 0.498039 0.313726 1
1 0.498039 0.313726 1
1 0.498039 0.313726 1
1 0.498039 0.313726 1
1 0.498039 0.313726 1
1 0.498039 0.313726 1
1 0.498039 0.313726 1
1 0.498039 0.313726 1
1 0.498039 0.313726 1
1 0.498039 0.313726 1
1 0.498039 0.313726 1
1 0.498039 0.313726 1
1 0.498039 0.313726 1
1 0.498039 0.313726 1
1 0.498039 0.313726 1
1 0.498039 0.313726 1
1 0.498039 0.313726 1
1 0.498039 0.313726 1
1 0.498039 0.313726 1
1 0.498039 0.313726 1
1 0.498039 0.313726 1
1 0.498039 0.313726 1
1 0.498039 0.313726 1
1 0.498039 0.313726 1
1 0.498039 0.313726 1
1 0.498039 0.313726 1
1 0.498039 0.313726 1
1 0.498039 0.313726 1
1 0.498039 0.313726 1
1 0.498039 0.313726 1
1 0.498039 0.313726 1
1 0.498039 0.313726 1
1 0.498039 0.313726 1
1 0.498039 0.313726 1
1 0.498039 0.313726 1
1 0.498039 0.313726 1
1 0.498039 0.313726 1
1 0.498039 0.313726 1
1 0.498039 0.313726 1
1 0.498039 0.313726 1
1 0.498039 0.313726 1
1 0.498039 0.313726 1
1 0.498039 0.313726 1
1 0.498039 0.313726 1
1 0.498039 0.313726 1
1 0.498039 0.313726 1
1 0.498039 0.313726 1
1 0.498039 0.313726 1
1 0.498039 0.313726 1
1 0.498039 0.313726 1

