# vtk DataFile Version 3.0
Gocad TSurf to VTK
ASCII
DATASET POLYDATA
POINTS 1082 float
21600137.500 4573873.750 -350.625
21600200.000 4573970.000 -325.000
21600262.500 4573927.500 -277.500
21600887.500 4574086.250 183.125
21599887.500 4573488.750 -453.125
21599500.000 4573670.000 -645.000
21599575.000 4573493.750 -601.875
21599175.000 4573418.750 -665.625
21599400.000 4573325.000 -607.500
21599100.000 4573450.000 -685.000
21599150.000 4573345.000 -677.500
21599000.000 4573155.000 -662.500
21599225.000 4573187.500 -666.250
21598500.000 4573180.000 -560.000
21598550.000 4573140.000 -570.000
21598700.000 4573020.000 -600.000
21598450.000 4572920.000 -552.500
21598250.000 4572957.500 -486.250
21598125.000 4572846.250 -449.375
21597000.000 4572460.000 -75.000
21597062.500 4572438.750 -98.750
21596600.000 4572105.000 67.500
21597375.000 4572332.500 -217.500
21596000.000 4571980.000 275.000
21596050.000 4571922.500 258.750
21596150.000 4571807.500 226.250
21596200.000 4571750.000 210.000
21596125.000 4571836.250 234.375
21596075.000 4571893.750 250.625
21596100.000 4571865.000 242.500
21596175.000 4571778.750 218.125
21597225.000 4572132.500 -150.000
21597850.000 4571966.250 -265.000
21596225.000 4571738.750 208.125
21596250.000 4571727.500 206.250
21596300.000 4571705.000 202.500
21596950.000 4571975.000 -35.000
21596275.000 4571716.250 204.375
21596300.000 4571705.000 202.500
21596325.000 4571693.750 200.625
21596350.000 4571682.500 198.750
21596375.000 4571671.250 196.875
21596400.000 4571660.000 195.000
21596375.000 4571671.250 196.875
21597900.000 4571920.000 -265.000
21597750.000 4571743.750 -92.500
21597987.500 4571867.500 -223.125
21596500.000 4571631.250 195.000
21597375.000 4571552.500 80.000
21596487.500 4571432.500 24.375
21596900.000 4571516.250 195.000
21597287.500 4571491.250 137.500
21596500.000 4571400.000 0.000
21596512.500 4571372.500 -31.875
21596587.500 4571207.500 -223.125
21597550.000 4571158.750 181.875
21597550.000 4571508.750 137.500
21596900.000 4571305.000 -30.000
21597600.000 4571120.000 180.000
21596600.000 4571180.000 -255.000
21597800.000 4571295.000 160.000
21597950.000 4571426.250 145.000
21598000.000 4571100.000 245.000
21598000.000 4571146.250 231.875
21598262.500 4571137.500 210.000
21598300.000 4571090.000 220.000
21598187.500 4571232.500 190.000
21598412.500 4571243.750 163.750
21598700.000 4571060.000 225.000
21598662.500 4571225.000 166.875
21598562.500 4571448.750 88.750
21599125.000 4571097.500 83.125
21598975.000 4571212.500 79.375
21599200.000 4571040.000 85.000
21599225.000 4571162.500 60.000
21599475.000 4571083.750 -41.250
21599400.000 4571275.000 -30.000
21599500.000 4571020.000 -45.000
21599625.000 4571351.250 -104.375
21599875.000 4571068.750 -275.625
21599800.000 4571275.000 -217.500
21599900.000 4571000.000 -295.000
21600150.000 4571295.000 -335.000
21600400.000 4570970.000 -505.000
21600437.500 4571048.750 -495.625
21600400.000 4571280.000 -440.000
21600900.000 4570950.000 -520.000
21600875.000 4571031.250 -508.750
21600925.000 4571033.750 -495.000
21600550.000 4571285.000 -467.500
21600825.000 4571193.750 -486.250
21600775.000 4571356.250 -463.750
21600975.000 4571201.250 -445.000
21601275.000 4571007.500 -350.625
21601025.000 4571368.750 -395.000
21601000.000 4571285.000 -420.000
21601200.000 4571270.000 -337.500
21601050.000 4571452.500 -370.000
21601325.000 4571353.750 -263.750
21601475.000 4571176.250 -226.250
21601125.000 4571532.500 -324.375
21601050.000 4571452.500 -370.000
21601750.000 4571280.000 -35.000
21601800.000 4571650.000 100.000
21601737.500 4571187.500 -68.750
21601912.500 4571361.250 113.125
21601625.000 4570998.750 -188.750
21601700.000 4570910.000 -170.000
21601400.000 4570920.000 -355.000
21601300.000 4570920.000 -355.000
21602062.500 4570976.250 130.625
21601987.500 4571168.750 121.875
21602100.000 4570880.000 135.000
21602100.000 4570977.500 151.250
21602100.000 4571075.000 167.500
21602100.000 4571172.500 183.750
21602100.000 4571270.000 200.000
21602100.000 4571367.500 216.250
21602100.000 4571465.000 232.500
21602100.000 4571562.500 248.750
21601837.500 4571553.750 104.375
21602100.000 4571660.000 265.000
21601812.500 4571768.750 134.375
21601725.000 4571870.000 110.000
21602075.000 4571777.500 278.750
21601837.500 4572006.250 203.125
21602050.000 4571895.000 292.500
21602025.000 4572012.500 306.250
21601850.000 4572125.000 237.500
21602000.000 4572130.000 320.000
21601975.000 4572247.500 333.750
21601875.000 4572362.500 306.250
21601300.000 4572075.000 -90.000
21601950.000 4572365.000 347.500
21601925.000 4572482.500 361.250
21601900.000 4572600.000 375.000
21601462.500 4572692.500 153.750
21601300.000 4572075.000 -90.000
21601812.500 4572753.750 359.375
21601350.000 4573180.000 195.000
21601875.000 4572778.750 352.500
21601850.000 4572957.500 330.000
21601825.000 4573136.250 307.500
21601700.000 4573275.000 300.000
21601800.000 4573315.000 285.000
21601650.000 4573443.750 281.250
21601775.000 4573493.750 262.500
21601462.500 4573368.750 296.875
21601600.000 4573612.500 262.500
21601375.000 4573522.500 281.250
21601550.000 4573781.250 243.750
21601312.500 4573342.500 208.750
21601275.000 4573505.000 222.500
21601200.000 4573445.000 192.500
21601237.500 4573667.500 236.250
21601500.000 4573950.000 225.000
21601150.000 4573962.500 252.500
21601725.000 4573851.250 217.500
21601700.000 4574030.000 195.000
21601750.000 4573672.500 240.000
21601675.000 4574101.250 211.875
21601437.500 4574001.250 229.375
21601700.000 4574112.500 208.750
21601700.000 4574195.000 222.500
21601600.000 4574150.000 225.000
21601625.000 4574243.750 245.625
21601700.000 4574277.500 236.250
21601600.000 4574315.000 262.500
21601500.000 4574270.000 255.000
21601700.000 4574360.000 250.000
21601575.000 4574386.250 279.375
21601700.000 4574442.500 263.750
21601375.000 4574300.000 281.250
21601425.000 4574160.000 258.750
21601525.000 4574528.750 313.125
21601500.000 4574600.000 330.000
21601700.000 4574525.000 277.500
21601700.000 4574607.500 291.250
21601700.000 4574690.000 305.000
21601300.000 4574510.000 315.000
21601062.500 4574308.750 255.625
21601250.000 4574155.000 242.500
21601000.000 4574360.000 260.000
21601037.500 4574131.250 241.250
21601100.000 4573750.000 210.000
21600637.500 4573672.500 7.500
21600800.000 4573492.500 65.625
21600625.000 4573310.000 -101.250
21599625.000 4573231.250 -549.375
21601250.000 4573292.500 183.750
21600550.000 4572990.000 -257.500
21599962.500 4572881.250 -545.000
21599737.500 4573085.000 -549.375
21600400.000 4572350.000 -570.000
21599925.000 4572510.000 -646.250
21600000.000 4572280.000 -685.000
21599850.000 4572740.000 -607.500
21599812.500 4572855.000 -588.125
21599625.000 4572825.000 -571.250
21599450.000 4572407.500 -643.750
21599775.000 4572970.000 -568.750
21599675.000 4573075.000 -543.750
21599300.000 4573030.000 -655.000
21599400.000 4572615.000 -647.500
21599125.000 4572612.500 -640.000
21599275.000 4572447.500 -640.000
21599362.500 4572257.500 -628.125
21598537.500 4572602.500 -556.875
21598150.000 4572290.000 -405.000
21598950.000 4573007.500 -651.250
21597750.000 4572512.500 -338.750
21599500.000 4572200.000 -640.000
21599425.000 4571948.750 -405.625
21599850.000 4571915.000 -412.500
21600350.000 4571676.250 -413.750
21599625.000 4571793.750 -327.500
21599325.000 4571613.750 -93.125
21599700.000 4571550.000 -140.000
21600400.000 4571512.500 -391.250
21600625.000 4571442.500 -448.750
21600700.000 4571600.000 -430.000
21601025.000 4571368.750 -395.000
21601075.000 4571536.250 -345.000
21601050.000 4571452.500 -370.000
21599262.500 4571346.250 22.500
21598937.500 4571762.500 -196.250
21598337.500 4571657.500 -55.625
21597975.000 4571582.500 38.750
21597650.000 4571626.250 22.500
21601300.000 4572075.000 -90.000
21601300.000 4572075.000 -90.000
21601800.000 4571650.000 100.000
21601075.000 4571536.250 -345.000
21601050.000 4571452.500 -370.000
21601125.000 4571532.500 -324.375
21601012.500 4571711.250 -351.250
21601800.000 4571650.000 100.000
21600700.000 4571600.000 -430.000
21600662.500 4571693.750 -447.500
21600400.000 4571512.500 -391.250
21600575.000 4572167.500 -507.500
21601300.000 4572075.000 -90.000
21600550.000 4571975.000 -500.000
21600475.000 4572162.500 -535.000
21600350.000 4571676.250 -413.750
21600000.000 4572280.000 -685.000
21600400.000 4572350.000 -570.000
21601800.000 4571650.000 100.000
21600700.000 4571600.000 -430.000
21601050.000 4571452.500 -370.000
21601075.000 4571536.250 -345.000
21601025.000 4571368.750 -395.000
21600700.000 4571600.000 -430.000
21601050.000 4571452.500 -370.000
21599900.000 4571000.000 -295.000
21600400.000 4570970.000 -505.000
21599937.500 4570938.750 -301.875
21600437.500 4570905.000 -495.625
21599500.000 4571020.000 -45.000
21599525.000 4570912.500 -23.750
21600237.500 4570221.250 -355.625
21599387.500 4570877.500 60.000
21599312.500 4570782.500 130.000
21599200.000 4571040.000 85.000
21599200.000 4570940.000 122.500
21599200.000 4570740.000 197.500
21598950.000 4570865.000 187.500
21598700.000 4571060.000 225.000
21598700.000 4571013.750 233.125
21598700.000 4570875.000 257.500
21598600.000 4570980.000 241.250
21598300.000 4571090.000 220.000
21598300.000 4571046.250 228.750
21598450.000 4570860.000 265.625
21598037.500 4571055.000 250.625
21598262.500 4570785.000 284.375
21598000.000 4571100.000 245.000
21597975.000 4571025.000 225.000
21597750.000 4570960.000 172.500
21597725.000 4570802.500 72.500
21597600.000 4571120.000 180.000
21597325.000 4571082.500 8.750
21596912.500 4571026.250 -248.125
21596600.000 4571180.000 -255.000
21596587.500 4571153.750 -286.250
21596575.000 4571127.500 -317.500
21596587.500 4571153.750 -286.250
21596562.500 4571101.250 -348.750
21596512.500 4570996.250 -473.750
21596562.500 4571101.250 -348.750
21596500.000 4570970.000 -505.000
21597375.000 4570807.500 -112.500
21597937.500 4570650.000 150.000
21596500.000 4570951.250 -513.750
21596500.000 4570932.500 -522.500
21596500.000 4570913.750 -531.250
21597200.000 4570810.000 -205.000
[...]
POINT_DATA 1082
COLOR_SCALARS GocadColor 4
0.393637 0.590082 0.929412 1
0.393637 0.590082 0.929412 1
0.393637 0.590082 0.929412 1
0.393637 0.590082 0.929412 1
0.393637 0.590082 0.929412 1
0.393637 0.590082 0.929412 1
0.393637 0.590082 0.929412 1
0.393637 0.590082 0.929412 1
0.393637 0.590082 0.929412 1
0.393637 0.590082 0.929412 1
0.393637 0.590082 0.929412 1
0.393637 0.590082 0.929412 1
0.393637 0.590082 0.929412 1
0.393637 0.590082 0.929412 1
0.393637 0.590082 0.929412 1
0.393637 0.590082 0.929412 1
0.393637 0.590082 0.929412 1
0.393637 0.590082 0.929412 1
0.393637 0.590082 0.929412 1
0.393637 0.590082 0.929412 1
0.393637 0.590082 0.929412 1
0.393637 0.590082 0.929412 1
0.393637 0.590082 0.929412 1
0.393637 0.590082 0.929412 1
0.393637 0.590082 0.929412 1
0.393637 0.590082 0.929412 1
0.393637 0.590082 0.929412 1
0.393637 0.590082 0.929412 1
0.393637 0.590082 0.929412 1
0.393637 0.590082 0.929412 1
0.393637 0.590082 0.929412 1
0.393637 0.590082 0.929412 1
0.393637 0.590082 0.929412 1
0.393637 0.590082 0.929412 1
0.393637 0.590082 0.929412 1
0.393637 0.590082 0.929412 1
0.393637 0.590082 0.929412 1
0.393637 0.590082 0.929412 1
0.393637 0.590082 0.929412 1
0.393637 0.590082 0.929412 1
0.393637 0.590082 0.929412 1
0.393637 0.590082 0.929412 1
0.393637 0.590082 0.929412 1
0.393637 0.590082 0.929412 1
0.393637 0.590082 0.929412 1
0.393637 0.590082 0.929412 1
0.393637 0.590082 0.929412 1
0.393637 0.590082 0.929412 1
0.393637 0.590082 0.929412 1
0.393637 0.590082 0.929412 1
0.393637 0.590082 0.929412 1
0.393637 0.590082 0.929412 1
0.393637 0.590082 0.929412 1
0.393637 0.590082 0.929412 1
0.393637 0.590082 0.929412 1
0.393637 0.590082 0.929412 1
0.393637 0.590082 0.929412 1
0.393637 0.590082 0.929412 1
0.393637 0.590082 0.929412 1
0.393637 0.590082 0.929412 1
0.393637 0.590082 0.929412 1
0.393637 0.590082 0.929412 1
0.393637 0.590082 0.929412 1
0.393637 0.590082 0.929412 1
0.393637 0.590082 0.929412 1
0.393637 0.590082 0.929412 1
0.393637 0.590082 0.929412 1
0.393637 0.590082 0.929412 1
0.393637 0.590082 0.929412 1
0.393637 0.590082 0.929412 1
0.393637 0.590082 0.929412 1
0.393637 0.590082 0.929412 1
0.393637 0.590082 0.929412 1
0.393637 0.590082 0.929412 1
0.393637 0.590082 0.929412 1
0.393637 0.590082 0.929412 1
0.393637 0.590082 0.929412 1
0.393637 0.590082 0.929412 1
0.393637 0.590082 0.929412 1
0.393637 0.590082 0.929412 1
0.393637 0.590082 0.929412 1
0.393637 0.590082 0.929412 1
0.393637 0.590082 0.929412 1
0.393637 0.590082 0.929412 1
0.393637 0.590082 0.929412 1
0.393637 0.590082 0.929412 1
0.393637 0.590082 0.929412 1
0.393637 0.590082 0.929412 1
0.393637 0.590082 0.929412 1
0.393637 0.590082 0.929412 1
0.393637 0.590082 0.929412 1
0.393637 0.590082 0.929412 1
0.393637 0.590082 0.929412 1
0.393637 0.590082 0.929412 1
0.393637 0.590082 0.929412 1
0.393637 0.590082 0.929412 1
0.393637 0.590082 0.929412 1
0.393637 0.590082 0.929412 1
0.393637 0.590082 0.929412 1
0.393637 0.590082 0.929412 1
0.393637 0.590082 0.929412 1
0.393637 0.590082 0.929412 1
0.393637 0.590082 0.929412 1
0.393637 0.590082 0.929412 1
0.393637 0.590082 0.929412 1
0.393637 0.590082 0.929412 1
0.393637 0.590082 0.929412 1
0.393637 0.590082 0.929412 1
0.393637 0.590082 0.929412 1
0.393637 0.590082 0.929412 1
0.393637 0.590082 0.929412 1
0.393637 0.590082 0.929412 1
0.393637 0.590082 0.929412 1
0.393637 0.590082 0.929412 1
0.393637 0.590082 0.929412 1
0.393637 0.590082 0.929412 1
0.393637 0.590082 0.929412 1
0.393637 0.590082 0.929412 1
0.393637 0.590082 0.929412 1
0.393637 0.590082 0.929412 1
0.393637 0.590082 0.929412 1
0.393637 0.590082 0.929412 1
0.393637 0.590082 0.929412 1
0.393637 0.590082 0.929412 1
0.393637 0.590082 0.929412 1
0.393637 0.590082 0.929412 1
0.393637 0.590082 0.929412 1
0.393637 0.590082 0.929412 1
0.393637 0.590082 0.929412 1
0.393637 0.590082 0.929412 1
0.393637 0.590082 0.929412 1
0.393637 0.590082 0.929412 1
0.393637 0.590082 0.929412 1
0.393637 0.590082 0.929412 1
0.393637 0.590082 0.929412 1
0.393637 0.590082 0.929412 1
0.393637 0.590082 0.929412 1
0.393637 0.590082 0.929412 1
0.393637 0.590082 0.929412 1
0.393637 0.590082 0.929412 1
0.393637 0.590082 0.929412 1
0.393637 0.590082 0.929412 1
0.393637 0.590082 0.929412 1
0.393637 0.590082 0.929412 1
0.393637 0.590082 0.929412 1
0.393637 0.590082 0.929412 1
0.393637 0.590082 0.929412 1
0.393637 0.590082 0.929412 1
0.393637 0.590082 0.929412 1
0.393637 0.590082 0.929412 1
0.393637 0.590082 0.929412 1
0.393637 0.590082 0.929412 1
0.393637 0.590082 0.929412 1
0.393637 0.590082 0.929412 1
0.393637 0.590082 0.929412 1
0.393637 0.590082 0.929412 1
0.393637 0.590082 0.929412 1
0.393637 0.590082 0.929412 1
0.393637 0.590082 0.929412 1
0.393637 0.590082 0.929412 1
0.393637 0.590082 0.929412 1
0.393637 0.590082 0.929412 1
0.393637 0.590082 0.929412 1
0.393637 0.590082 0.929412 1
0.393637 0.590082 0.929412 1
0.393637 0.590082 0.929412 1
0.393637 0.590082 0.929412 1
0.393637 0.590082 0.929412 1
0.393637 0.590082 0.929412 1
0.393637 0.590082 0.929412 1
0.393637 0.590082 0.929412 1
0.393637 0.590082 0.929412 1
0.393637 0.590082 0.929412 1
0.393637 0.590082 0.929412 1
0.393637 0.590082 0.929412 1
0.393637 0.590082 0.929412 1
0.393637 0.590082 0.929412 1
0.393637 0.590082 0.929412 1
0.393637 0.590082 0.929412 1
0.393637 0.590082 0.929412 1
0.393637 0.590082 0.929412 1
0.393637 0.590082 0.929412 1
0.393637 0.590082 0.929412 1
0.393637 0.590082 0.929412 1
0.393637 0.590082 0.929412 1
0.393637 0.590082 0.929412 1
0.393637 0.590082 0.929412 1
0.393637 0.590082 0.929412 1
0.393637 0.590082 0.929412 1
0.393637 0.590082 0.929412 1
0.393637 0.590082 0.929412 1
0.393637 0.590082 0.929412 1
0.393637 0.590082 0.929412 1
0.393637 0.590082 0.929412 1
0.393637 0.590082 0.929412 1
0.393637 0.590082 0.929412 1
0.393637 0.590082 0.929412 1
0.393637 0.590082 0.929412 1
0.393637 0.590082 0.929412 1
0.393637 0.590082 0.929412 1
0.393637 0.590082 0.929412 1
0.393637 0.590082 0.929412 1
0.393637 0.590082 0.929412 1
0.393637 0.590082 0.929412 1
0.393637 0.590082 0.929412 1
0.393637 0.590082 0.929412 1
0.393637 0.590082 0.929412 1
0.393637 0.590082 0.929412 1
0.393637 0.590082 0.929412 1
0.393637 0.590082 0.929412 1
0.393637 0.590082 0.929412 1
0.393637 0.590082 0.929412 1
0.393637 0.590082 0.929412 1
0.393637 0.590082 0.929412 1
0.393637 0.590082 0.929412 1
0.393637 0.590082 0.929412 1
0.393637 0.590082 0.929412 1
0.393637 0.590082 0.929412 1
0.393637 0.590082 0.929412 1
0.393637 0.590082 0.929412 1
0.393637 0.590082 0.929412 1
0.393637 0.590082 0.929412 1
0.393637 0.590082 0.929412 1
0.393637 0.590082 0.929412 1
0.393637 0.590082 0.929412 1
0.393637 0.590082 0.929412 1
0.393637 0.590082 0.929412 1
0.393637 0.590082 0.929412 1
0.393637 0.590082 0.929412 1
0.393637 0.590082 0.929412 1
0.393637 0.590082 0.929412 1
0.393637 0.590082 0.929412 1
0.393637 0.590082 0.929412 1
0.393637 0.590082 0.929412 1
0.393637 0.590082 0.929412 1
0.393637 0.590082 0.929412 1
0.393637 0.590082 0.929412 1
0.393637 0.590082 0.929412 1
0.393637 0.590082 0.929412 1
0.393637 0.590082 0.929412 1
0.393637 0.590082 0.929412 1
0.393637 0.590082 0.929412 1
0.393637 0.590082 0.929412 1
0.393637 0.590082 0.929412 1
0.393637 0.590082 0.929412 1
0.393637 0.590082 0.929412 1
0.393637 0.590082 0.929412 1
0.393637 0.590082 0.929412 1
0.393637 0.590082 0.929412 1
0.393637 0.590082 0.929412 1
0.393637 0.590082 0.929412 1
0.393637 0.590082 0.929412 1
0.393637 0.590082 0.929412 1
0.393637 0.590082 0.929412 1
0.393637 0.590082 0.929412 1
0.393637 0.590082 0.929412 1
0.393637 0.590082 0.929412 1
0.393637 0.590082 0.929412 1
0.393637 0.590082 0.929412 1
0.393637 0.590082 0.929412 1
0.393637 0.590082 0.929412 1
0.393637 0.590082 0.929412 1
0.393637 0.590082 0.929412 1
0.393637 0.590082 0.929412 1
0.393637 0.590082 0.929412 1
0.393637 0.590082 0.929412 1
0.393637 0.590082 0.929412 1
0.393637 0.590082 0.929412 1
0.393637 0.590082 0.929412 1
0.393637 0.590082 0.929412 1
0.393637 0.590082 0.929412 1
0.393637 0.590082 0.929412 1
0.393637 0.590082 0.929412 1
0.393637 0.590082 0.929412 1
0.393637 0.590082 0.929412 1
0.393637 0.590082 0.929412 1
0.393637 0.590082 0.929412 1
0.393637 0.590082 0.929412 1
0.393637 0.590082 0.929412 1
0.393637 0.590082 0.929412 1
0.393637 0.590082 0.929412 1
0.393637 0.590082 0.929412 1
0.393637 0.590082 0.929412 1
0.393637 0.590082 0.929412 1
0.393637 0.590082 0.929412 1
0.393637 0.590082 0.929412 1
0.393637 0.590082 0.929412 1
0.393637 0.590082 0.929412 1
0.393637 0.590082 0.929412 1
0.393637 0.590082 0.929412 1
0.393637 0.590082 0.929412 1
0.393637 0.590082 0.929412 1
0.393637 0.590082 0.929412 1
0.393637 0.590082 0.929412 1
0.393637 0.590082 0.929412 1
0.393637 0.590082 0.929412 1
0.393637 0.590082 0.929412 1
0.393637 0.590082 0.929412 1
0.393637 0.590082 0.929412 1
0.393637 0.590082 0.929412 1
0.393637 0.590082 0.929412 1
0.393637 0.590082 0.929412 1
0.393637 0.590082 0.929412 1
0.393637 0.590082 0.929412 1
0.393637 0.590082 0.929412 1
0.393637 0.590082 0.929412 1
0.393637 0.590082 0.929412 1
0.393637 0.590082 0.929412 1
0.393637 0.590082 0.929412 1
0.393637 0.590082 0.929412 1
0.393637 0.590082 0.929412 1
0.393637 0.590082 0.929412 1
0.393637 0.590082 0.929412 1
0.393637 0.590082 0.929412 1
0.393637 0.590082 0.929412 1
0.393637 0.590082 0.929412 1
0.393637 0.590082 0.929412 1
0.393637 0.590082 0.929412 1
0.393637 0.590082 0.929412 1
0.393637 0.590082 0.929412 1
0.393637 0.590082 0.929412 1
0.393637 0.590082 0.929412 1
0.393637 0.590082 0.929412 1
0.393637 0.590082 0.929412 1
0.393637 0.590082 0.929412 1
0.393637 0.590082 0.929412 1
0.393637 0.590082 0.929412 1
0.393637 0.590082 0.929412 1
0.393637 0.590082 0.929412 1
0.393637 0.590082 0.929412 1
0.393637 0.590082 0.929412 1
0.393637 0.590082 0.929412 1
0.393637 0.590082 0.929412 1
0.393637 0.590082 0.929412 1
0.393637 0.590082 0.929412 1
0.393637 0.590082 0.929412 1
0.393637 0.590082 0.929412 1
0.393637 0.590082 0.929412 1
0.393637 0.590082 0.929412 1
0.393637 0.590082 0.929412 1
0.393637 0.590082 0.929412 1
0.393637 0.590082 0.929412 1
0.393637 0.590082 0.929412 1
0.393637 0.590082 0.929412 1
0.393637 0.590082 0.929412 1
0.393637 0.590082 0.929412 1
0.393637 0.590082 0.929412 1
0.393637 0.590082 0.929412 1
0.393637 0.590082 0.929412 1
0.393637 0.590082 0.929412 1
0.393637 0.590082 0.929412 1
0.393637 0.590082 0.929412 1
0.393637 0.590082 0.929412 1
0.393637 0.590082 0.929412 1
0.393637 0.590082 0.929412 1
0.393637 0.590082 0.929412 1
0.393637 0.590082 0.929412 1
0.393637 0.590082 0.929412 1
0.393637 0.590082 0.929412 1
0.393637 0.590082 0.929412 1
0.393637 0.590082 0.929412 1
0.393637 0.590082 0.929412 1
0.393637 0.590082 0.929412 1
0.393637 0.590082 0.929412 1
0.393637 0.590082 0.929412 1
0.393637 0.590082 0.929412 1
0.393637 0.590082 0.929412 1
0.393637 0.590082 0.929412 1
0.393637 0.590082 0.929412 1
0.393637 0.590082 0.929412 1
0.393637 0.590082 0.929412 1
0.393637 0.590082 0.929412 1
0.393637 0.590082 0.929412 1
0.393637 0.590082 0.929412 1
0.393637 0.590082 0.929412 1
0.393637 0.590082 0.929412 1
0.393637 0.590082 0.929412 1
0.393637 0.590082 0.929412 1
0.393637 0.590082 0.929412 1
0.393637 0.590082 0.929412 1
0.393637 0.590082 0.929412 1
0.393637 0.590082 0.929412 1
0.393637 0.590082 0.929412 1
0.393637 0.590082 0.929412 1
0.393637 0.590082 0.929412 1
0.393637 0.590082 0.929412 1
0.393637 0.590082 0.929412 1
0.393637 0.590082 0.929412 1
0.393637 0.590082 0.929412 1
0.393637 0.590082 0.929412 1
0.393637 0.590082 0.929412 1
0.393637 0.590082 0.929412 1
0.393637 0.590082 0.929412 1
0.393637 0.590082 0.929412 1
0.393637 0.590082 0.929412 1
0.393637 0.590082 0.929412 1
0.393637 0.590082 0.929412 1
0.393637 0.590082 0.929412 1
0.393637 0.590082 0.929412 1
0.393637 0.590082 0.929412 1
0.393637 0.590082 0.929412 1
0.393637 0.590082 0.929412 1
0.393637 0.590082 0.929412 1
0.393637 0.590082 0.929412 1
0.393637 0.590082 0.929412 1
0.393637 0.590082 0.929412 1
0.393637 0.590082 0.929412 1
0.393637 0.590082 0.929412 1
0.393637 0.590082 0.929412 1
0.393637 0.590082 0.929412 1
0.393637 0.590082 0.929412 1
0.393637 0.590082 0.929412 1
0.393637 0.590082 0.929412 1
0.393637 0.590082 0.929412 1
0.393637 0.590082 0.929412 1
0.393637 0.590082 0.929412 1
0.393637 0.590082 0.929412 1
0.393637 0.590082 0.929412 1
0.393637 0.590082 0.929412 1
0.393637 0.590082 0.929412 1
0.393637 0.590082 0.929412 1
0.393637 0.590082 0.929412 1
0.393637 0.590082 0.929412 1
0.393637 0.590082 0.929412 1
0.393637 0.590082 0.929412 1
0.393637 0.590082 0.929412 1
0.393637 0.590082 0.929412 1
0.393637 0.590082 0.929412 1
0.393637 0.590082 0.929412 1
0.393637 0.590082 0.929412 1
0.393637 0.590082 0.929412 1
0.393637 0.590082 0.929412 1
0.393637 0.590082 0.929412 1
0.393637 0.590082 0.929412 1
0.393637 0.590082 0.929412 1
0.393637 0.590082 0.929412 1
0.393637 0.590082 0.929412 1
0.393637 0.590082 0.929412 1
0.393637 0.590082 0.929412 1
0.393637 0.590082 0.929412 1
0.393637 0.590082 0.929412 1
0.393637 0.590082 0.929412 1
0.393637 0.590082 0.929412 1
0.393637 0.590082 0.929412 1
0.393637 0.590082 0.929412 1
0.393637 0.590082 0.929412 1
0.393637 0.590082 0.929412 1
0.393637 0.590082 0.929412 1
0.393637 0.590082 0.929412 1
0.393637 0.590082 0.929412 1
0.393637 0.590082 0.929412 1
0.393637 0.590082 0.929412 1
0.393637 0.590082 0.929412 1
0.393637 0.590082 0.929412 1
0.393637 0.590082 0.929412 1
0.393637 0.590082 0.929412 1
0.393637 0.590082 0.929412 1
0.393637 0.590082 0.929412 1
0.393637 0.590082 0.929412 1
0.393637 0.590082 0.929412 1
0.393637 0.590082 0.929412 1
0.393637 0.590082 0.929412 1
0.393637 0.590082 0.929412 1
0.393637 0.590082 0.929412 1
0.393637 0.590082 0.929412 1
0.393637 0.590082 0.929412 1
0.393637 0.590082 0.929412 1
0.393637 0.590082 0.929412 1
0.393637 0.590082 0.929412 1
0.393637 0.590082 0.929412 1
0.393637 0.590082 0.929412 1
0.393637 0.590082 0.929412 1
0.393637 0.590082 0.929412 1
0.393637 0.590082 0.929412 1
0.393637 0.590082 0.929412 1
0.393637 0.590082 0.929412 1
0.393637 0.590082 0.929412 1
0.393637 0.590082 0.929412 1
0.393637 0.590082 0.929412 1
0.393637 0.590082 0.929412 1
0.393637 0.590082 0.929412 1
0.393637 0.590082 0.929412 1
0.393637 0.590082 0.929412 1
0.393637 0.590082 0.929412 1
0.393637 0.590082 0.929412 1
0.393637 0.590082 0.929412 1
0.393637 0.590082 0.929412 1
0.393637 0.590082 0.929412 1
0.393637 0.590082 0.929412 1
0.393637 0.590082 0.929412 1
0.393637 0.590082 0.929412 1
0.393637 0.590082 0.929412 1
0.393637 0.590082 0.929412 1
0.393637 0.590082 0.929412 1
0.393637 0.590082 0.929412 1
0.393637 0.590082 0.929412 1
0.393637 0.590082 0.929412 1
0.393637 0.590082 0.929412 1
0.393637 0.590082 0.929412 1
0.393637 0.590082 0.929412 1
0.393637 0.590082 0.929412 1
0.393637 0.590082 0.929412 1
0.393637 0.590082 0.929412 1
0.393637 0.590082 0.929412 1
0.393637 0.590082 0.929412 1
0.393637 0.590082 0.929412 1
0.393637 0.590082 0.929412 1
0.393637 0.590082 0.929412 1
0.393637 0.590082 0.929412 1
0.393637 0.590082 0.929412 1
0.393637 0.590082 0.929412 1
0.393637 0.590082 0.929412 1
0.393637 0.590082 0.929412 1
0.393637 0.590082 0.929412 1
0.393637 0.590082 0.929412 1
0.393637 0.590082 0.929412 1
0.393637 0.590082 0.929412 1
0.393637 0.590082 0.929412 1
0.393637 0.590082 0.929412 1
0.393637 0.590082 0.929412 1
0.393637 0.590082 0.929412 1
0.393637 0.590082 0.929412 1
0.393637 0.590082 0.929412 1
0.393637 0.590082 0.929412 1
0.393637 0.590082 0.929412 1
0.393637 0.590082 0.929412 1
0.393637 0.590082 0.929412 1
0.393637 0.590082 0.929412 1
0.393637 0.590082 0.929412 1
0.393637 0.590082 0.929412 1
0.393637 0.590082 0.929412 1
0.393637 0.590082 0.929412 1
0.393637 0.590082 0.929412 1
0.393637 0.590082 0.929412 1
0.393637 0.590082 0.929412 1
0.393637 0.590082 0.929412 1
0.393637 0.590082 0.929412 1
0.393637 0.590082 0.929412 1
0.393637 0.590082 0.929412 1
0.393637 0.590082 0.929412 1
0.393637 0.590082 0.929412 1
0.393637 0.590082 0.929412 1
0.393637 0.590082 0.929412 1
0.393637 0.590082 0.929412 1
0.393637 0.590082 0.929412 1
0.393637 0.590082 0.929412 1
0.393637 0.590082 0.929412 1
0.393637 0.590082 0.929412 1
0.393637 0.590082 0.929412 1
0.393637 0.590082 0.929412 1
0.393637 0.590082 0.929412 1
0.393637 0.590082 0.929412 1
0.393637 0.590082 0.929412 1
0.393637 0.590082 0.929412 1
0.393637 0.590082 0.929412 1
0.393637 0.590082 0.929412 1
0.393637 0.590082 0.929412 1
0.393637 0.590082 0.929412 1
0.393637 0.590082 0.929412 1
0.393637 0.590082 0.929412 1
0.393637 0.590082 0.929412 1
0.393637 0.590082 0.929412 1
0.393637 0.590082 0.929412 1
0.393637 0.590082 0.929412 1
0.393637 0.590082 0.929412 1
0.393637 0.590082 0.929412 1
0.393637 0.590082 0.929412 1
0.393637 0.590082 0.929412 1
0.393637 0.590082 0.929412 1
0.393637 0.590082 0.929412 1
0.393637 0.590082 0.929412 1
0.393637 0.590082 0.929412 1
0.393637 0.590082 0.929412 1
0.393637 0.590082 0.929412 1
0.393637 0.590082 0.929412 1
0.393637 0.590082 0.929412 1
0.393637 0.590082 0.929412 1
0.393637 0.590082 0.929412 1
0.393637 0.590082 0.929412 1
0.393637 0.590082 0.929412 1
0.393637 0.590082 0.929412 1
0.393637 0.590082 0.929412 1
0.393637 0.590082 0.929412 1
0.393637 0.590082 0.929412 1
0.393637 0.590082 0.929412 1
0.393637 0.590082 0.929412 1
0.393637 0.590082 0.929412 1
0.393637 0.590082 0.929412 1
0.393637 0.590082 0.929412 1
0.393637 0.590082 0.929412 1
0.393637 0.590082 0.929412 1
0.393637 0.590082 0.929412 1
0.393637 0.590082 0.929412 1
0.393637 0.590082 0.929412 1
0.393637 0.590082 0.929412 1
0.393637 0.590082 0.929412 1
0.393637 0.590082 0.929412 1
0.393637 0.590082 0.929412 1
0.393637 0.590082 0.929412 1
0.393637 0.590082 0.929412 1
0.393637 0.590082 0.929412 1
0.393637 0.590082 0.929412 1
0.393637 0.590082 0.929412 1
0.393637 0.590082 0.929412 1
0.393637 0.590082 0.929412 1
0.393637 0.590082 0.929412 1
0.393637 0.590082 0.929412 1
0.393637 0.590082 0.929412 1
0.393637 0.590082 0.929412 1
0.393637 0.590082 0.929412 1
0.393637 0.590082 0.929412 1
0.393637 0.590082 0.929412 1
0.393637 0.590082 0.929412 1
0.393637 0.590082 0.929412 1
0.393637 0.590082 0.929412 1
0.393637 0.590082 0.929412 1
0.393637 0.590082 0.929412 1
0.393637 0.590082 0.929412 1
0.393637 0.590082 0.929412 1
0.393637 0.590082 0.929412 1
0.393637 0.590082 0.929412 1
0.393637 0.590082 0.929412 1
0.393637 0.590082 0.929412 1
0.393637 0.590082 0.929412 1
0.393637 0.590082 0.929412 1
0.393637 0.590082 0.929412 1
0.393637 0.590082 0.929412 1
0.393637 0.590082 0.929412 1
0.393637 0.590082 0.929412 1
0.393637 0.590082 0.929412 1
0.393637 0.590082 0.929412 1
0.393637 0.590082 0.929412 1
0.393637 0.590082 0.929412 1
0.393637 0.590082 0.929412 1
0.393637 0.590082 0.929412 1
0.393637 0.590082 0.929412 1
0.393637 0.590082 0.929412 1
0.393637 0.590082 0.929412 1
0.393637 0.590082 0.929412 1
0.393637 0.590082 0.929412 1
0.393637 0.590082 0.929412 1
0.393637 0.590082 0.929412 1
0.393637 0.590082 0.929412 1
0.393637 0.590082 0.929412 1
0.393637 0.590082 0.929412 1
0.393637 0.590082 0.929412 1
0.393637 0.590082 0.929412 1
0.393637 0.590082 0.929412 1
0.393637 0.590082 0.929412 1
0.393637 0.590082 0.929412 1
0.393637 0.590082 0.929412 1
0.393637 0.590082 0.929412 1
0.393637 0.590082 0.929412 1
0.393637 0.590082 0.929412 1
0.393637 0.590082 0.929412 1
0.393637 0.590082 0.929412 1
0.393637 0.590082 0.929412 1
0.393637 0.590082 0.929412 1
0.393637 0.590082 0.929412 1
0.393637 0.590082 0.929412 1
0.393637 0.590082 0.929412 1
0.393637 0.590082 0.929412 1
0.393637 0.590082 0.929412 1
0.393637 0.590082 0.929412 1
0.393637 0.590082 0.929412 1
0.393637 0.590082 0.929412 1
0.393637 0.590082 0.929412 1
0.393637 0.590082 0.929412 1
0.393637 0.590082 0.929412 1
0.393637 0.590082 0.929412 1
0.393637 0.590082 0.929412 1
0.393637 0.590082 0.929412 1
0.393637 0.590082 0.929412 1
0.393637 0.590082 0.929412 1
0.393637 0.590082 0.929412 1
0.393637 0.590082 0.929412 1
0.393637 0.590082 0.929412 1
0.393637 0.590082 0.929412 1
0.393637 0.590082 0.929412 1
0.393637 0.590082 0.929412 1
0.393637 0.590082 0.929412 1
0.393637 0.590082 0.929412 1
0.393637 0.590082 0.929412 1
0.393637 0.590082 0.929412 1
0.393637 0.590082 0.929412 1
0.393637 0.590082 0.929412 1
0.393637 0.590082 0.929412 1
0.393637 0.590082 0.929412 1