# vtk DataFile Version 3.0
Gocad TSurf to VTK
ASCII
DATASET POLYDATA
POINTS 710 float
21562825.000 4573432.500 -843.750
21562700.000 4573080.000 -855.000
21562925.000 4573367.500 -830.000
21563400.000 4572860.000 -825.000
21563150.000 4573655.000 -805.000
21562450.000 4573552.500 -851.250
21562700.000 4573865.000 -837.500
21562200.000 4573240.000 -865.000
21562500.000 4572825.000 -888.750
21562375.000 4573605.000 -886.250
21562150.000 4573665.000 -845.000
21562400.000 4574010.000 -880.000
21561900.000 4573320.000 -810.000
21561900.000 4573005.000 -855.000
21561625.000 4573072.500 -841.250
21562125.000 4572945.000 -896.250
21561900.000 4572690.000 -900.000
21562300.000 4572570.000 -922.500
21562050.000 4572650.000 -927.500
21562875.000 4572735.000 -868.750
21563050.000 4572390.000 -882.500
21563400.000 4572570.000 -846.250
21563900.000 4572710.000 -770.000
21563775.000 4572457.500 -805.000
21563575.000 4573130.000 -803.750
21563950.000 4573017.500 -762.500
21563450.000 4573202.500 -807.500
21563750.000 4573400.000 -782.500
21563500.000 4573545.000 -790.000
21563375.000 4573942.500 -780.000
21563550.000 4573887.500 -772.500
21562950.000 4573785.000 -832.500
21563075.000 4574137.500 -821.250
21562950.000 4574177.500 -823.750
21562550.000 4573970.000 -907.500
21562725.000 4574335.000 -928.750
21562650.000 4574355.000 -915.000
21562900.000 4574700.000 -950.000
21563200.000 4574490.000 -810.000
21563275.000 4574745.000 -800.000
21563475.000 4574617.500 -796.250
21563050.000 4574902.500 -905.000
21563350.000 4575000.000 -790.000
21563200.000 4575105.000 -860.000
21563425.000 4575255.000 -780.000
21563750.000 4574745.000 -782.500
21563350.000 4575307.500 -815.000
21563500.000 4575510.000 -770.000
21564025.000 4574872.500 -768.750
21564300.000 4575000.000 -755.000
21564125.000 4575950.000 -735.000
21564125.000 4574807.500 -755.000
21563950.000 4574615.000 -755.000
21564250.000 4574735.000 -751.250
21564800.000 4574670.000 -910.000
21564625.000 4574487.500 -867.500
21564800.000 4575460.000 -737.500
21565175.000 4575212.500 -853.750
21564725.000 4575567.500 -723.750
21565300.000 4575920.000 -720.000
21565150.000 4576135.000 -692.500
21565550.000 4575755.000 -797.500
21565750.000 4575465.000 -910.000
21565800.000 4576380.000 -702.500
21565925.000 4576297.500 -741.250
21565575.000 4576702.500 -661.250
21566300.000 4576840.000 -685.000
21565375.000 4576830.000 -665.000
21564750.000 4576390.000 -700.000
21566000.000 4577270.000 -630.000
21565000.000 4577325.000 -747.500
21566500.000 4577125.000 -741.250
21566600.000 4576960.000 -751.250
21566275.000 4577447.500 -700.000
21566225.000 4577560.000 -702.500
21566700.000 4577410.000 -797.500
21566900.000 4577080.000 -817.500
21566550.000 4577625.000 -770.000
21566900.000 4577695.000 -853.750
21567200.000 4577200.000 -883.750
21566825.000 4577802.500 -840.000
21566450.000 4577850.000 -775.000
21567100.000 4577980.000 -910.000
21566675.000 4578140.000 -847.500
21567500.000 4577320.000 -950.000
21567725.000 4577627.500 -1015.000
21567800.000 4577422.500 -1001.250
21567425.000 4578122.500 -985.000
21567950.000 4577935.000 -1080.000
21567275.000 4578460.000 -992.500
21567650.000 4578490.000 -1065.000
21566900.000 4578430.000 -920.000
21567225.000 4578640.000 -996.250
21566550.000 4578305.000 -875.000
21566600.000 4578890.000 -1030.000
21566200.000 4578180.000 -830.000
21566325.000 4578650.000 -957.500
21566050.000 4578410.000 -885.000
21565900.000 4578695.000 -915.000
21565850.000 4578055.000 -785.000
21565775.000 4578170.000 -812.500
21565500.000 4577930.000 -740.000
21565700.000 4578312.500 -827.500
21565675.000 4578400.000 -841.250
21565850.000 4578870.000 -942.500
21566100.000 4579077.500 -1002.500
21566025.000 4579340.000 -1043.750
21566300.000 4579460.000 -1090.000
21566725.000 4579572.500 -1120.000
21566200.000 4579810.000 -1145.000
21566650.000 4579835.000 -1161.250
21566550.000 4580077.500 -1145.000
21566900.000 4580345.000 -1145.000
21567100.000 4579860.000 -1177.500
21567250.000 4580612.500 -1145.000
21567550.000 4579885.000 -1193.750
21567150.000 4579685.000 -1150.000
21567600.000 4580880.000 -1145.000
21568000.000 4579910.000 -1210.000
21567575.000 4579797.500 -1180.000
21567875.000 4580517.500 -1092.500
21568175.000 4579790.000 -1141.250
21568200.000 4579270.000 -1225.000
21568150.000 4580155.000 -1040.000
21568350.000 4579670.000 -1072.500
21568325.000 4579310.000 -1152.500
21568425.000 4579792.500 -987.500
21568525.000 4579550.000 -1003.750
21568450.000 4579350.000 -1080.000
21568700.000 4579430.000 -935.000
21568575.000 4579390.000 -1007.500
21568650.000 4579150.000 -1030.000
21568500.000 4579190.000 -1095.000
21568800.000 4579110.000 -965.000
21568700.000 4578970.000 -1026.250
21568900.000 4579242.500 -883.750
21568975.000 4579002.500 -906.250
21569000.000 4578600.000 -910.000
21569100.000 4579055.000 -832.500
21569150.000 4578895.000 -847.500
21569125.000 4578620.000 -865.000
21569300.000 4578867.500 -781.250
21569325.000 4578787.500 -788.750
21569250.000 4578640.000 -820.000
21569500.000 4578680.000 -730.000
21569375.000 4578660.000 -775.000
21569450.000 4578412.500 -793.750
21569300.000 4578475.000 -832.500
21569600.000 4578350.000 -755.000
21569525.000 4578227.500 -766.250
21569700.000 4578505.000 -736.250
21569775.000 4578257.500 -755.000
21569800.000 4577780.000 -800.000
21569900.000 4578330.000 -742.500
21569950.000 4578165.000 -755.000
21569925.000 4577830.000 -788.750
21570100.000 4578155.000 -748.750
21570125.000 4578072.500 -755.000
21570050.000 4577880.000 -777.500
21570300.000 4577980.000 -755.000
21570175.000 4577930.000 -766.250
21570250.000 4577630.000 -800.000
21570100.000 4577680.000 -800.000
21570400.000 4577580.000 -800.000
21570325.000 4577435.000 -806.250
21570500.000 4577797.500 -776.250
21570575.000 4577497.500 -810.000
21570600.000 4577060.000 -800.000
21570700.000 4577615.000 -797.500
21570750.000 4577415.000 -820.000
21570725.000 4577107.500 -810.000
21570900.000 4577432.500 -818.750
21570925.000 4577332.500 -830.000
21570850.000 4577155.000 -820.000
21571100.000 4577250.000 -840.000
21570975.000 4577202.500 -830.000
21570975.000 4576925.000 -923.750
21570850.000 4576970.000 -882.500
21571100.000 4576880.000 -965.000
21571000.000 4576805.000 -908.750
21570900.000 4576730.000 -852.500
21571075.000 4576520.000 -927.500
21570950.000 4576540.000 -865.000
21571200.000 4576500.000 -990.000
21571075.000 4576235.000 -856.250
21570950.000 4576350.000 -817.500
21571200.000 4576120.000 -895.000
21571100.000 4576105.000 -826.250
21571000.000 4576090.000 -757.500
21571175.000 4575782.500 -702.500
21571050.000 4575875.000 -675.000
21571300.000 4575690.000 -730.000
21571200.000 4575660.000 -695.000
21571100.000 4575630.000 -660.000
21571250.000 4575545.000 -702.500
21571200.000 4575400.000 -675.000
21571000.000 4575600.000 -625.000
21571150.000 4575255.000 -647.500
21570925.000 4575967.500 -647.500
21570900.000 4575570.000 -590.000
21570800.000 4576060.000 -620.000
21570900.000 4576075.000 -688.750
21570750.000 4575932.500 -630.000
21570700.000 4576090.000 -653.750
21570825.000 4575565.000 -607.500
21570700.000 4575805.000 -640.000
21570875.000 4575470.000 -597.500
21570750.000 4575560.000 -625.000
21571100.000 4575110.000 -620.000
21571025.000 4575125.000 -620.000
21570850.000 4575370.000 -605.000
21571050.000 4575052.500 -630.000
21570950.000 4575140.000 -620.000
21571000.000 4574995.000 -640.000
21570825.000 4575270.000 -612.500
21570675.000 4575555.000 -642.500
21570875.000 4575155.000 -620.000
21570800.000 4575170.000 -620.000
21570950.000 4574937.500 -650.000
21570900.000 4574880.000 -660.000
21570775.000 4575102.500 -698.750
21570700.000 4575237.500 -657.500
21570850.000 4574885.000 -728.750
21570750.000 4575035.000 -777.500
21570875.000 4574805.000 -732.500
21570800.000 4574890.000 -797.500
21570850.000 4574730.000 -805.000
21570725.000 4574967.500 -856.250
21570600.000 4575305.000 -695.000
21570750.000 4574895.000 -866.250
21570700.000 4574900.000 -935.000
21570825.000 4574655.000 -877.500
21570800.000 4574580.000 -950.000
21570550.000 4574575.000 -1046.250
21570475.000 4574815.000 -1035.000
21570600.000 4574400.000 -1032.500
21570300.000 4574570.000 -1142.500
21570400.000 4574220.000 -1115.000
21570250.000 4574730.000 -1135.000
21570050.000 4574565.000 -1238.750
21570425.000 4574945.000 -1038.750
21570150.000 4574990.000 -1142.500
21570200.000 4575350.000 -915.000
21570025.000 4574645.000 -1235.000
21569875.000 4575035.000 -1246.250
21570000.000 4575260.000 -1060.000
21569800.000 4574560.000 -1335.000
21569600.000 4575080.000 -1350.000
21569800.000 4575170.000 -1205.000
21569475.000 4574857.500 -1360.000
21569400.000 4575015.000 -1350.000
21569625.000 4574467.500 -1348.750
21569350.000 4574635.000 -1370.000
21569775.000 4573942.500 -1307.500
21569550.000 4574025.000 -1335.000
21570000.000 4573860.000 -1280.000
21569875.000 4573780.000 -1305.000
21570200.000 4574040.000 -1197.500
21569750.000 4573700.000 -1330.000
21569875.000 4573780.000 -1305.000
21569750.000 4573700.000 -1330.000
21569625.000 4573620.000 -1355.000
21569625.000 4573620.000 -1355.000
21569325.000 4574107.500 -1362.500
21569450.000 4574375.000 -1362.500
21569500.000 4573540.000 -1380.000
21569100.000 4574190.000 -1390.000
21569275.000 4574282.500 -1376.250
21569025.000 4573937.500 -1280.000
21568925.000 4574092.500 -1307.500
21569325.000 4573450.000 -1272.500
21568950.000 4573685.000 -1170.000
21569325.000 4573450.000 -1272.500
21569150.000 4573360.000 -1165.000
21569150.000 4573360.000 -1165.000
21568975.000 4573270.000 -1057.500
21568975.000 4573270.000 -1057.500
21568875.000 4573432.500 -1060.000
21568800.000 4573180.000 -950.000
21568400.000 4573800.000 -1060.000
21568575.000 4573897.500 -1142.500
21568225.000 4573515.000 -1083.750
21568075.000 4573620.000 -1081.250
21568525.000 4573050.000 -1001.250
21568050.000 4573230.000 -1107.500
21568250.000 4572920.000 -1052.500
21567875.000 4572945.000 -1131.250
21567750.000 4573440.000 -1102.500
21567975.000 4572790.000 -1103.750
[...]
POINT_DATA 710
COLOR_SCALARS GocadColor 4
0 1 0.48333 1
0 1 0.48333 1
0 1 0.48333 1
0 1 0.48333 1
0 1 0.48333 1
0 1 0.48333 1
0 1 0.48333 1
0 1 0.48333 1
0 1 0.48333 1
0 1 0.48333 1
0 1 0.48333 1
0 1 0.48333 1
0 1 0.48333 1
0 1 0.48333 1
0 1 0.48333 1
0 1 0.48333 1
0 1 0.48333 1
0 1 0.48333 1
0 1 0.48333 1
0 1 0.48333 1
0 1 0.48333 1
0 1 0.48333 1
0 1 0.48333 1
0 1 0.48333 1
0 1 0.48333 1
0 1 0.48333 1
0 1 0.48333 1
0 1 0.48333 1
0 1 0.48333 1
0 1 0.48333 1
0 1 0.48333 1
0 1 0.48333 1
0 1 0.48333 1
0 1 0.48333 1
0 1 0.48333 1
0 1 0.48333 1
0 1 0.48333 1
0 1 0.48333 1
0 1 0.48333 1
0 1 0.48333 1
0 1 0.48333 1
0 1 0.48333 1
0 1 0.48333 1
0 1 0.48333 1
0 1 0.48333 1
0 1 0.48333 1
0 1 0.48333 1
0 1 0.48333 1
0 1 0.48333 1
0 1 0.48333 1
0 1 0.48333 1
0 1 0.48333 1
0 1 0.48333 1
0 1 0.48333 1
0 1 0.48333 1
0 1 0.48333 1
0 1 0.48333 1
0 1 0.48333 1
0 1 0.48333 1
0 1 0.48333 1
0 1 0.48333 1
0 1 0.48333 1
0 1 0.48333 1
0 1 0.48333 1
0 1 0.48333 1
0 1 0.48333 1
0 1 0.48333 1
0 1 0.48333 1
0 1 0.48333 1
0 1 0.48333 1
0 1 0.48333 1
0 1 0.48333 1
0 1 0.48333 1
0 1 0.48333 1
0 1 0.48333 1
0 1 0.48333 1
0 1 0.48333 1
0 1 0.48333 1
0 1 0.48333 1
0 1 0.48333 1
0 1 0.48333 1
0 1 0.48333 1
0 1 0.48333 1
0 1 0.48333 1
0 1 0.48333 1
0 1 0.48333 1
0 1 0.48333 1
0 1 0.48333 1
0 1 0.48333 1
0 1 0.48333 1
0 1 0.48333 1
0 1 0.48333 1
0 1 0.48333 1
0 1 0.48333 1
0 1 0.48333 1
0 1 0.48333 1
0 1 0.48333 1
0 1 0.48333 1
0 1 0.48333 1
0 1 0.48333 1
0 1 0.48333 1
0 1 0.48333 1
0 1 0.48333 1
0 1 0.48333 1
0 1 0.48333 1
0 1 0.48333 1
0 1 0.48333 1
0 1 0.48333 1
0 1 0.48333 1
0 1 0.48333 1
0 1 0.48333 1
0 1 0.48333 1
0 1 0.48333 1
0 1 0.48333 1
0 1 0.48333 1
0 1 0.48333 1
0 1 0.48333 1
0 1 0.48333 1
0 1 0.48333 1
0 1 0.48333 1
0 1 0.48333 1
0 1 0.48333 1
0 1 0.48333 1
0 1 0.48333 1
0 1 0.48333 1
0 1 0.48333 1
0 1 0.48333 1
0 1 0.48333 1
0 1 0.48333 1
0 1 0.48333 1
0 1 0.48333 1
0 1 0.48333 1
0 1 0.48333 1
0 1 0.48333 1
0 1 0.48333 1
0 1 0.48333 1
0 1 0.48333 1
0 1 0.48333 1
0 1 0.48333 1
0 1 0.48333 1
0 1 0.48333 1
0 1 0.48333 1
0 1 0.48333 1
0 1 0.48333 1
0 1 0.48333 1
0 1 0.48333 1
0 1 0.48333 1
0 1 0.48333 1
0 1 0.48333 1
0 1 0.48333 1
0 1 0.48333 1
0 1 0.48333 1
0 1 0.48333 1
0 1 0.48333 1
0 1 0.48333 1
0 1 0.48333 1
0 1 0.48333 1
0 1 0.48333 1
0 1 0.48333 1
0 1 0.48333 1
0 1 0.48333 1
0 1 0.48333 1
0 1 0.48333 1
0 1 0.48333 1
0 1 0.48333 1
0 1 0.48333 1
0 1 0.48333 1
0 1 0.48333 1
0 1 0.48333 1
0 1 0.48333 1
0 1 0.48333 1
0 1 0.48333 1
0 1 0.48333 1
0 1 0.48333 1
0 1 0.48333 1
0 1 0.48333 1
0 1 0.48333 1
0 1 0.48333 1
0 1 0.48333 1
0 1 0.48333 1
0 1 0.48333 1
0 1 0.48333 1
0 1 0.48333 1
0 1 0.48333 1
0 1 0.48333 1
0 1 0.48333 1
0 1 0.48333 1
0 1 0.48333 1
0 1 0.48333 1
0 1 0.48333 1
0 1 0.48333 1
0 1 0.48333 1
0 1 0.48333 1
0 1 0.48333 1
0 1 0.48333 1
0 1 0.48333 1
0 1 0.48333 1
0 1 0.48333 1
0 1 0.48333 1
0 1 0.48333 1
0 1 0.48333 1
0 1 0.48333 1
0 1 0.48333 1
0 1 0.48333 1
0 1 0.48333 1
0 1 0.48333 1
0 1 0.48333 1
0 1 0.48333 1
0 1 0.48333 1
0 1 0.48333 1
0 1 0.48333 1
0 1 0.48333 1
0 1 0.48333 1
0 1 0.48333 1
0 1 0.48333 1
0 1 0.48333 1
0 1 0.48333 1
0 1 0.48333 1
0 1 0.48333 1
0 1 0.48333 1
0 1 0.48333 1
0 1 0.48333 1
0 1 0.48333 1
0 1 0.48333 1
0 1 0.48333 1
0 1 0.48333 1
0 1 0.48333 1
0 1 0.48333 1
0 1 0.48333 1
0 1 0.48333 1
0 1 0.48333 1
0 1 0.48333 1
0 1 0.48333 1
0 1 0.48333 1
0 1 0.48333 1
0 1 0.48333 1
0 1 0.48333 1
0 1 0.48333 1
0 1 0.48333 1
0 1 0.48333 1
0 1 0.48333 1
0 1 0.48333 1
0 1 0.48333 1
0 1 0.48333 1
0 1 0.48333 1
0 1 0.48333 1
0 1 0.48333 1
0 1 0.48333 1
0 1 0.48333 1
0 1 0.48333 1
0 1 0.48333 1
0 1 0.48333 1
0 1 0.48333 1
0 1 0.48333 1
0 1 0.48333 1
0 1 0.48333 1
0 1 0.48333 1
0 1 0.48333 1
0 1 0.48333 1
0 1 0.48333 1
0 1 0.48333 1
0 1 0.48333 1
0 1 0.48333 1
0 1 0.48333 1
0 1 0.48333 1
0 1 0.48333 1
0 1 0.48333 1
0 1 0.48333 1
0 1 0.48333 1
0 1 0.48333 1
0 1 0.48333 1
0 1 0.48333 1
0 1 0.48333 1
0 1 0.48333 1
0 1 0.48333 1
0 1 0.48333 1
0 1 0.48333 1
0 1 0.48333 1
0 1 0.48333 1
0 1 0.48333 1
0 1 0.48333 1
0 1 0.48333 1
0 1 0.48333 1
0 1 0.48333 1
0 1 0.48333 1
0 1 0.48333 1
0 1 0.48333 1
0 1 0.48333 1
0 1 0.48333 1
0 1 0.48333 1
0 1 0.48333 1
0 1 0.48333 1
0 1 0.48333 1
0 1 0.48333 1
0 1 0.48333 1
0 1 0.48333 1
0 1 0.48333 1
0 1 0.48333 1
0 1 0.48333 1
0 1 0.48333 1
0 1 0.48333 1
0 1 0.48333 1
0 1 0.48333 1
0 1 0.48333 1
0 1 0.48333 1
0 1 0.48333 1
0 1 0.48333 1
0 1 0.48333 1
0 1 0.48333 1
0 1 0.48333 1
0 1 0.48333 1
0 1 0.48333 1
0 1 0.48333 1
0 1 0.48333 1
0 1 0.48333 1
0 1 0.48333 1
0 1 0.48333 1
0 1 0.48333 1
0 1 0.48333 1
0 1 0.48333 1
0 1 0.48333 1
0 1 0.48333 1
0 1 0.48333 1
0 1 0.48333 1
0 1 0.48333 1
0 1 0.48333 1
0 1 0.48333 1
0 1 0.48333 1
0 1 0.48333 1
0 1 0.48333 1
0 1 0.48333 1
0 1 0.48333 1
0 1 0.48333 1
0 1 0.48333 1
0 1 0.48333 1
0 1 0.48333 1
0 1 0.48333 1
0 1 0.48333 1
0 1 0.48333 1
0 1 0.48333 1
0 1 0.48333 1
0 1 0.48333 1
0 1 0.48333 1
0 1 0.48333 1
0 1 0.48333 1
0 1 0.48333 1
0 1 0.48333 1
0 1 0.48333 1
0 1 0.48333 1
0 1 0.48333 1
0 1 0.48333 1
0 1 0.48333 1
0 1 0.48333 1
0 1 0.48333 1
0 1 0.48333 1
0 1 0.48333 1
0 1 0.48333 1
0 1 0.48333 1
0 1 0.48333 1
0 1 0.48333 1
0 1 0.48333 1
0 1 0.48333 1
0 1 0.48333 1
0 1 0.48333 1
0 1 0.48333 1
0 1 0.48333 1
0 1 0.48333 1
0 1 0.48333 1
0 1 0.48333 1
0 1 0.48333 1
0 1 0.48333 1
0 1 0.48333 1
0 1 0.48333 1
0 1 0.48333 1
0 1 0.48333 1
0 1 0.48333 1
0 1 0.48333 1
0 1 0.48333 1
0 1 0.48333 1
0 1 0.48333 1
0 1 0.48333 1
0 1 0.48333 1
0 1 0.48333 1
0 1 0.48333 1
0 1 0.48333 1
0 1 0.48333 1
0 1 0.48333 1
0 1 0.48333 1
0 1 0.48333 1
0 1 0.48333 1
0 1 0.48333 1
0 1 0.48333 1
0 1 0.48333 1
0 1 0.48333 1
0 1 0.48333 1
0 1 0.48333 1
0 1 0.48333 1
0 1 0.48333 1
0 1 0.48333 1
0 1 0.48333 1
0 1 0.48333 1
0 1 0.48333 1
0 1 0.48333 1
0 1 0.48333 1
0 1 0.48333 1
0 1 0.48333 1
0 1 0.48333 1
0 1 0.48333 1
0 1 0.48333 1
0 1 0.48333 1
0 1 0.48333 1
0 1 0.48333 1
0 1 0.48333 1
0 1 0.48333 1
0 1 0.48333 1
0 1 0.48333 1
0 1 0.48333 1
0 1 0.48333 1
0 1 0.48333 1
0 1 0.48333 1
0 1 0.48333 1
0 1 0.48333 1
0 1 0.48333 1
0 1 0.48333 1
0 1 0.48333 1
0 1 0.48333 1
0 1 0.48333 1
0 1 0.48333 1
0 1 0.48333 1
0 1 0.48333 1
0 1 0.48333 1
0 1 0.48333 1
0 1 0.48333 1
0 1 0.48333 1
0 1 0.48333 1
0 1 0.48333 1
0 1 0.48333 1
0 1 0.48333 1
0 1 0.48333 1
0 1 0.48333 1
0 1 0.48333 1
0 1 0.48333 1
0 1 0.48333 1
0 1 0.48333 1
0 1 0.48333 1
0 1 0.48333 1
0 1 0.48333 1
0 1 0.48333 1
0 1 0.48333 1
0 1 0.48333 1
0 1 0.48333 1
0 1 0.48333 1
0 1 0.48333 1
0 1 0.48333 1
0 1 0.48333 1
0 1 0.48333 1
0 1 0.48333 1
0 1 0.48333 1
0 1 0.48333 1
0 1 0.48333 1
0 1 0.48333 1
0 1 0.48333 1
0 1 0.48333 1
0 1 0.48333 1
0 1 0.48333 1
0 1 0.48333 1
0 1 0.48333 1
0 1 0.48333 1
0 1 0.48333 1
0 1 0.48333 1
0 1 0.48333 1
0 1 0.48333 1
0 1 0.48333 1
0 1 0.48333 1
0 1 0.48333 1
0 1 0.48333 1
0 1 0.48333 1
0 1 0.48333 1
0 1 0.48333 1
0 1 0.48333 1
0 1 0.48333 1
0 1 0.48333 1
0 1 0.48333 1
0 1 0.48333 1
0 1 0.48333 1
0 1 0.48333 1
0 1 0.48333 1
0 1 0.48333 1
0 1 0.48333 1
0 1 0.48333 1
0 1 0.48333 1
0 1 0.48333 1
0 1 0.48333 1
0 1 0.48333 1
0 1 0.48333 1
0 1 0.48333 1
0 1 0.48333 1
0 1 0.48333 1
0 1 0.48333 1
0 1 0.48333 1
0 1 0.48333 1
0 1 0.48333 1
0 1 0.48333 1
0 1 0.48333 1
0 1 0.48333 1
0 1 0.48333 1
0 1 0.48333 1
0 1 0.48333 1
0 1 0.48333 1
0 1 0.48333 1
0 1 0.48333 1
0 1 0.48333 1
0 1 0.48333 1
0 1 0.48333 1
0 1 0.48333 1
0 1 0.48333 1
0 1 0.48333 1
0 1 0.48333 1
0 1 0.48333 1
0 1 0.48333 1
0 1 0.48333 1
0 1 0.48333 1
0 1 0.48333 1
0 1 0.48333 1
0 1 0.48333 1
0 1 0.48333 1
0 1 0.48333 1
0 1 0.48333 1
0 1 0.48333 1
0 1 0.48333 1
0 1 0.48333 1
0 1 0.48333 1
0 1 0.48333 1
0 1 0.48333 1
0 1 0.48333 1
0 1 0.48333 1
0 1 0.48333 1
0 1 0.48333 1
0 1 0.48333 1
0 1 0.48333 1
0 1 0.48333 1
0 1 0.48333 1
0 1 0.48333 1
0 1 0.48333 1
0 1 0.48333 1
0 1 0.48333 1
0 1 0.48333 1
0 1 0.48333 1
0 1 0.48333 1
0 1 0.48333 1
0 1 0.48333 1
0 1 0.48333 1
0 1 0.48333 1
0 1 0.48333 1
0 1 0.48333 1
0 1 0.48333 1
0 1 0.48333 1
0 1 0.48333 1
0 1 0.48333 1
0 1 0.48333 1
0 1 0.48333 1
0 1 0.48333 1
0 1 0.48333 1
0 1 0.48333 1
0 1 0.48333 1
0 1 0.48333 1
0 1 0.48333 1
0 1 0.48333 1
0 1 0.48333 1
0 1 0.48333 1
0 1 0.48333 1
0 1 0.48333 1
0 1 0.48333 1
0 1 0.48333 1
0 1 0.48333 1
0 1 0.48333 1
0 1 0.48333 1
0 1 0.48333 1
0 1 0.48333 1
0 1 0.48333 1
0 1 0.48333 1
0 1 0.48333 1
0 1 0.48333 1
0 1 0.48333 1
0 1 0.48333 1
0 1 0.48333 1
0 1 0.48333 1
0 1 0.48333 1
0 1 0.48333 1
0 1 0.48333 1
0 1 0.48333 1
0 1 0.48333 1
0 1 0.48333 1
0 1 0.48333 1
0 1 0.48333 1
0 1 0.48333 1
0 1 0.48333 1
0 1 0.48333 1
0 1 0.48333 1
0 1 0.48333 1
0 1 0.48333 1
0 1 0.48333 1
0 1 0.48333 1
0 1 0.48333 1
0 1 0.48333 1
0 1 0.48333 1
0 1 0.48333 1
0 1 0.48333 1
0 1 0.48333 1
0 1 0.48333 1
0 1 0.48333 1
0 1 0.48333 1
0 1 0.48333 1
0 1 0.48333 1
0 1 0.48333 1
0 1 0.48333 1
0 1 0.48333 1
0 1 0.48333 1
0 1 0.48333 1
0 1 0.48333 1
0 1 0.48333 1
0 1 0.48333 1
0 1 0.48333 1
0 1 0.48333 1
0 1 0.48333 1
0 1 0.48333 1
0 1 0.48333 1
0 1 0.48333 1
0 1 0.48333 1
0 1 0.48333 1
0 1 0.48333 1
0 1 0.48333 1
0 1 0.48333 1
0 1 0.48333 1
0 1 0.48333 1
0 1 0.48333 1
0 1 0.48333 1
0 1 0.48333 1
0 1 0.48333 1
0 1 0.48333 1
0 1 0.48333 1
0 1 0.48333 1
0 1 0.48333 1
0 1 0.48333 1
0 1 0.48333 1
0 1 0.48333 1
0 1 0.48333 1
0 1 0.48333 1
0 1 0.48333 1
0 1 0.48333 1
0 1 0.48333 1
0 1 0.48333 1
0 1 0.48333 1
0 1 0.48333 1
0 1 0.48333 1
0 1 0.48333 1
0 1 0.48333 1
0 1 0.48333 1
0 1 0.48333 1
0 1 0.48333 1
0 1 0.48333 1
0 1 0.48333 1
0 1 0.48333 1
0 1 0.48333 1
0 1 0.48333 1
0 1 0.48333 1
0 1 0.48333 1
0 1 0.48333 1
0 1 0.48333 1
0 1 0.48333 1
0 1 0.48333 1
0 1 0.48333 1
0 1 0.48333 1
0 1 0.48333 1
0 1 0.48333 1
0 1 0.48333 1
0 1 0.48333 1
0 1 0.48333 1
0 1 0.48333 1
0 1 0.48333 1
0 1 0.48333 1
0 1 0.48333 1
0 1 0.48333 1
0 1 0.48333 1
0 1 0.48333 1
0 1 0.48333 1
0 1 0.48333 1
0 1 0.48333 1
0 1 0.48333 1
0 1 0.48333 1
0 1 0.48333 1
0 1 0.48333 1
0 1 0.48333 1
0 1 0.48333 1
0 1 0.48333 1
0 1 0.48333 1
0 1 0.48333 1
0 1 0.48333 1
0 1 0.48333 1
0 1 0.48333 1
0 1 0.48333 1
0 1 0.48333 1
0 1 0.48333 1
0 1 0.48333 1
0 1 0.48333 1
0 1 0.48333 1
0 1 0.48333 1
0 1 0.48333 1
0 1 0.48333 1
0 1 0.48333 1

