# vtk DataFile Version 3.0
Gocad TSurf to VTK
ASCII
DATASET POLYDATA
POINTS 1400 float
21581675.000 4581712.500 -1315.000
21581750.000 4581752.500 -1317.500
21581700.000 4581630.000 -1255.000
21581750.000 4581757.500 -1317.500
21581575.000 4581647.500 -1258.750
21581650.000 4581795.000 -1375.000
21581800.000 4581875.000 -1380.000
21581600.000 4581960.000 -1495.000
21581250.000 4581645.000 -1348.750
21581850.000 4581997.500 -1442.500
21581900.000 4582120.000 -1505.000
21581800.000 4581885.000 -1380.000
21581850.000 4582012.500 -1442.500
21581900.000 4582140.000 -1505.000
21581750.000 4582217.500 -1481.250
21581750.000 4582232.500 -1481.250
21581600.000 4582315.000 -1457.500
21581525.000 4582097.500 -1473.750
21581600.000 4582325.000 -1457.500
21581450.000 4582412.500 -1433.750
21581450.000 4582235.000 -1452.500
21581450.000 4582417.500 -1433.750
21581300.000 4582510.000 -1410.000
21581250.000 4582105.000 -1340.000
21580800.000 4582210.000 -1355.000
21581000.000 4581960.000 -1312.500
21580700.000 4582695.000 -1410.000
21580400.000 4582250.000 -1337.500
21581150.000 4582682.500 -1423.750
21580950.000 4582845.000 -1437.500
21581275.000 4582770.000 -1423.750
21581150.000 4582955.000 -1457.500
21581250.000 4583030.000 -1437.500
21581075.000 4583177.500 -1481.250
21580775.000 4583005.000 -1451.250
21581225.000 4583290.000 -1451.250
21581000.000 4583400.000 -1505.000
21580700.000 4583200.000 -1465.000
21581200.000 4583550.000 -1465.000
21580950.000 4583557.500 -1578.750
21580825.000 4583467.500 -1518.750
21581100.000 4583670.000 -1548.750
21580900.000 4583715.000 -1652.500
21581275.000 4583777.500 -1521.250
21581200.000 4583900.000 -1640.000
21581350.000 4584005.000 -1577.500
21581200.000 4584075.000 -1727.500
21581425.000 4584232.500 -1633.750
21581250.000 4584360.000 -1815.000
21581075.000 4584250.000 -1786.250
21581500.000 4584460.000 -1690.000
21581475.000 4584517.500 -1721.250
21581525.000 4584560.000 -1727.500
21581450.000 4584575.000 -1752.500
21581400.000 4584690.000 -1815.000
21581550.000 4584660.000 -1765.000
21581575.000 4584760.000 -1802.500
21581600.000 4584860.000 -1840.000
21581425.000 4584822.500 -1850.000
21581175.000 4584670.000 -1786.250
21581575.000 4584950.000 -1868.750
21581550.000 4585040.000 -1897.500
21581650.000 4585002.500 -1888.750
21581700.000 4585145.000 -1937.500
21581750.000 4585287.500 -1986.250
21581500.000 4585220.000 -1955.000
21581800.000 4585430.000 -2035.000
21581525.000 4585362.500 -1863.750
21581375.000 4585255.000 -1815.000
21581750.000 4585520.000 -1923.750
21581875.000 4585590.000 -1955.000
21581550.000 4585505.000 -1772.500
21581700.000 4585615.000 -1812.500
21581650.000 4585700.000 -1701.250
21581950.000 4585750.000 -1875.000
21581600.000 4585790.000 -1590.000
21582025.000 4585910.000 -1795.000
21581050.000 4585485.000 -1422.500
21581500.000 4585800.000 -1568.750
21581575.000 4586010.000 -1580.000
21581150.000 4585715.000 -1477.500
21580600.000 4585140.000 -1295.000
21581150.000 4585960.000 -1533.750
21581050.000 4586200.000 -1591.250
21581425.000 4586172.500 -1507.500
21581200.000 4586155.000 -1577.500
21582100.000 4586440.000 -1730.000
21581950.000 4586510.000 -1653.750
21582100.000 4586255.000 -1722.500
21582325.000 4586460.000 -1767.500
21581925.000 4586050.000 -1670.000
21582100.000 4586162.500 -1718.750
21582100.000 4586070.000 -1715.000
21582175.000 4586200.000 -1732.500
21582250.000 4586330.000 -1750.000
21582400.000 4586590.000 -1785.000
21582050.000 4586565.000 -1653.750
21582325.000 4586715.000 -1715.000
21582100.000 4586765.000 -1617.500
21582475.000 4586815.000 -1796.250
21582500.000 4587015.000 -1792.500
21582175.000 4586965.000 -1575.000
21582550.000 4587040.000 -1807.500
21582550.000 4587227.500 -1796.250
21582625.000 4587265.000 -1818.750
21582600.000 4587440.000 -1800.000
21582100.000 4587090.000 -1505.000
21582700.000 4587490.000 -1830.000
21581900.000 4586940.000 -1425.000
21581950.000 4586815.000 -1501.250
21581650.000 4586650.000 -1501.250
21581500.000 4586720.000 -1425.000
21581475.000 4586537.500 -1452.500
21581000.000 4586320.000 -1620.000
21580000.000 4585517.500 -1928.750
21579700.000 4585480.000 -2065.000
21579200.000 4584855.000 -2275.000
21578525.000 4584255.000 -2537.500
21578000.000 4584350.000 -2680.000
21578175.000 4584297.500 -2650.000
21578000.000 4584330.000 -2695.000
21578000.000 4584320.000 -2705.000
21578000.000 4584320.000 -2720.000
21577525.000 4583642.500 -2982.500
21577900.000 4584310.000 -2720.000
21576500.000 4583320.000 -3235.000
21577275.000 4583245.000 -3091.250
21577600.000 4583450.000 -2912.500
21576500.000 4583310.000 -3235.000
21576350.000 4583100.000 -3336.250
21577075.000 4582727.500 -3126.250
21575000.000 4582310.000 -3780.000
21575225.000 4582350.000 -3745.000
21574950.000 4582175.000 -3843.750
21575900.000 4582470.000 -3640.000
21576500.000 4582225.000 -3537.500
21575300.000 4581885.000 -3922.500
21574800.000 4581770.000 -4035.000
21575750.000 4581612.500 -4028.750
21576100.000 4581730.000 -3920.000
21575050.000 4581377.500 -4246.250
21574700.000 4581260.000 -4355.000
21574550.000 4580867.500 -4627.500
21574600.000 4580990.000 -4540.000
21574650.000 4581120.000 -4452.500
21574650.000 4581130.000 -4445.000
21574700.000 4581250.000 -4365.000
21574725.000 4581380.000 -4282.500
21574750.000 4581510.000 -4200.000
21575300.000 4581885.000 -3922.500
21574800.000 4581770.000 -4035.000
21575975.000 4581545.000 -4017.500
21575050.000 4580860.000 -4512.500
21576250.000 4581610.000 -3990.000
21576350.000 4581780.000 -3871.250
21576400.000 4581340.000 -4185.000
21576200.000 4581145.000 -4310.000
21576700.000 4581520.000 -4045.000
21576550.000 4581117.500 -4233.750
21577050.000 4581735.000 -3892.500
21577175.000 4581495.000 -3905.000
21577700.000 4581980.000 -3530.000
21576850.000 4580972.500 -4081.250
21577100.000 4580722.500 -4008.750
21576475.000 4580732.500 -4280.000
21576725.000 4580472.500 -4210.000
21576600.000 4580170.000 -4242.500
21576950.000 4580365.000 -4150.000
21575925.000 4580357.500 -4403.750
21575625.000 4580915.000 -4355.000
21575975.000 4580005.000 -4347.500
21576650.000 4579970.000 -4228.750
21575550.000 4580285.000 -4437.500
21575275.000 4579952.500 -4417.500
21574900.000 4580390.000 -4542.500
21574800.000 4580602.500 -4538.750
21574900.000 4580230.000 -4605.000
21574300.000 4580060.000 -4623.750
21574750.000 4579805.000 -4465.000
21574400.000 4579560.000 -4422.500
21574600.000 4579390.000 -4310.000
21575775.000 4579430.000 -4310.000
21573975.000 4579145.000 -4190.000
21574500.000 4578420.000 -4130.000
21573425.000 4579357.500 -4378.750
21573300.000 4578870.000 -4060.000
21573650.000 4579575.000 -4462.500
21574150.000 4579870.000 -4582.500
21573325.000 4579440.000 -4327.500
21572750.000 4578900.000 -4161.250
21573875.000 4579792.500 -4546.250
21574100.000 4580010.000 -4630.000
21574200.000 4580190.000 -4651.250
21574400.000 4580550.000 -4693.750
21574500.000 4580730.000 -4715.000
21574300.000 4580370.000 -4672.500
21574400.000 4580550.000 -4693.750
21573225.000 4579362.500 -4253.750
21572550.000 4578870.000 -4025.000
21572350.000 4578715.000 -3877.500
21572300.000 4578530.000 -4005.000
21571775.000 4578300.000 -3722.500
21571500.000 4578000.000 -3655.000
21571475.000 4578067.500 -3501.250
21571000.000 4577730.000 -3420.000
21570600.000 4577420.000 -3125.000
21571175.000 4577677.500 -3328.750
21571600.000 4577760.000 -3355.000
21571000.000 4577572.500 -3241.250
21571000.000 4577415.000 -3062.500
21570700.000 4577340.000 -3020.000
21570800.000 4577260.000 -2915.000
21570900.000 4577180.000 -2810.000
21571000.000 4577100.000 -2705.000
21571950.000 4577275.000 -2810.000
21571650.000 4577640.000 -3205.000
21571200.000 4577027.500 -2593.750
21571600.000 4576882.500 -2371.250
21571025.000 4576927.500 -2523.750
21571400.000 4576955.000 -2475.000
21571600.000 4576882.500 -2360.000
21571050.000 4576750.000 -2342.500
21571075.000 4576575.000 -2161.250
21571750.000 4576535.000 -2107.500
21571075.000 4576582.500 -2161.250
21571100.000 4576410.000 -1980.000
21571075.000 4576575.000 -2161.250
21571100.000 4576400.000 -1980.000
21571100.000 4576400.000 -1980.000
21571250.000 4576365.000 -1973.750
21571550.000 4576295.000 -1961.250
21571700.000 4576260.000 -1955.000
21571125.000 4576280.000 -1868.750
21571150.000 4576160.000 -1757.500
21571100.000 4576400.000 -1980.000
21571125.000 4576280.000 -1868.750
21571175.000 4576040.000 -1646.250
21571200.000 4575920.000 -1535.000
21571500.000 4576022.500 -2000.000
21571700.000 4575892.500 -2738.750
21571125.000 4575767.500 -1685.000
21571050.000 4575615.000 -1835.000
21571125.000 4575767.500 -1685.000
21570975.000 4575462.500 -1985.000
21571100.000 4575547.500 -2090.000
21570900.000 4575310.000 -2135.000
21571700.000 4575770.000 -3000.000
21571150.000 4575345.000 -2330.000
21571650.000 4575415.000 -2720.000
21570875.000 4575190.000 -2107.500
21570850.000 4575070.000 -2080.000
21570825.000 4574950.000 -2052.500
21570800.000 4574830.000 -2025.000
21571900.000 4575450.000 -2915.000
21571250.000 4574857.500 -2206.250
21572200.000 4576070.000 -3335.000
21571900.000 4575992.500 -2888.750
21572875.000 4576107.500 -3563.750
21573175.000 4576502.500 -3786.250
21573100.000 4576120.000 -3640.000
21572200.000 4575392.500 -3016.250
21573125.000 4576247.500 -3688.750
21573500.000 4576565.000 -3877.500
21573800.000 4576490.000 -3920.000
21573900.000 4576690.000 -4007.500
21573350.000 4576050.000 -3702.500
21573950.000 4576165.000 -3905.000
21573200.000 4575950.000 -3626.250
21573300.000 4575780.000 -3612.500
21573100.000 4575895.000 -3560.000
21572500.000 4575335.000 -3117.500
21573100.000 4575670.000 -3480.000
21572250.000 4575195.000 -2832.500
21572800.000 4575277.500 -3218.750
21572600.000 4574940.000 -2750.000
21573100.000 4575445.000 -3400.000
21573400.000 4575610.000 -3598.750
21572775.000 4574905.000 -2857.500
21573150.000 4575115.000 -3285.000
21572650.000 4574837.500 -2701.250
21572650.000 4574837.500 -2701.250
21572700.000 4574735.000 -2652.500
21573125.000 4574835.000 -3072.500
[...]
POINT_DATA 1400
COLOR_SCALARS GocadColor 4
0.098039 0.8 0.87451 1
0.098039 0.8 0.87451 1
0.098039 0.8 0.87451 1
0.098039 0.8 0.87451 1
0.098039 0.8 0.87451 1
0.098039 0.8 0.87451 1
0.098039 0.8 0.87451 1
0.098039 0.8 0.87451 1
0.098039 0.8 0.87451 1
0.098039 0.8 0.87451 1
0.098039 0.8 0.87451 1
0.098039 0.8 0.87451 1
0.098039 0.8 0.87451 1
0.098039 0.8 0.87451 1
0.098039 0.8 0.87451 1
0.098039 0.8 0.87451 1
0.098039 0.8 0.87451 1
0.098039 0.8 0.87451 1
0.098039 0.8 0.87451 1
0.098039 0.8 0.87451 1
0.098039 0.8 0.87451 1
0.098039 0.8 0.87451 1
0.098039 0.8 0.87451 1
0.098039 0.8 0.87451 1
0.098039 0.8 0.87451 1
0.098039 0.8 0.87451 1
0.098039 0.8 0.87451 1
0.098039 0.8 0.87451 1
0.098039 0.8 0.87451 1
0.098039 0.8 0.87451 1
0.098039 0.8 0.87451 1
0.098039 0.8 0.87451 1
0.098039 0.8 0.87451 1
0.098039 0.8 0.87451 1
0.098039 0.8 0.87451 1
0.098039 0.8 0.87451 1
0.098039 0.8 0.87451 1
0.098039 0.8 0.87451 1
0.098039 0.8 0.87451 1
0.098039 0.8 0.87451 1
0.098039 0.8 0.87451 1
0.098039 0.8 0.87451 1
0.098039 0.8 0.87451 1
0.098039 0.8 0.87451 1
0.098039 0.8 0.87451 1
0.098039 0.8 0.87451 1
0.098039 0.8 0.87451 1
0.098039 0.8 0.87451 1
0.098039 0.8 0.87451 1
0.098039 0.8 0.87451 1
0.098039 0.8 0.87451 1
0.098039 0.8 0.87451 1
0.098039 0.8 0.87451 1
0.098039 0.8 0.87451 1
0.098039 0.8 0.87451 1
0.098039 0.8 0.87451 1
0.098039 0.8 0.87451 1
0.098039 0.8 0.87451 1
0.098039 0.8 0.87451 1
0.098039 0.8 0.87451 1
0.098039 0.8 0.87451 1
0.098039 0.8 0.87451 1
0.098039 0.8 0.87451 1
0.098039 0.8 0.87451 1
0.098039 0.8 0.87451 1
0.098039 0.8 0.87451 1
0.098039 0.8 0.87451 1
0.098039 0.8 0.87451 1
0.098039 0.8 0.87451 1
0.098039 0.8 0.87451 1
0.098039 0.8 0.87451 1
0.098039 0.8 0.87451 1
0.098039 0.8 0.87451 1
0.098039 0.8 0.87451 1
0.098039 0.8 0.87451 1
0.098039 0.8 0.87451 1
0.098039 0.8 0.87451 1
0.098039 0.8 0.87451 1
0.098039 0.8 0.87451 1
0.098039 0.8 0.87451 1
0.098039 0.8 0.87451 1
0.098039 0.8 0.87451 1
0.098039 0.8 0.87451 1
0.098039 0.8 0.87451 1
0.098039 0.8 0.87451 1
0.098039 0.8 0.87451 1
0.098039 0.8 0.87451 1
0.098039 0.8 0.87451 1
0.098039 0.8 0.87451 1
0.098039 0.8 0.87451 1
0.098039 0.8 0.87451 1
0.098039 0.8 0.87451 1
0.098039 0.8 0.87451 1
0.098039 0.8 0.87451 1
0.098039 0.8 0.87451 1
0.098039 0.8 0.87451 1
0.098039 0.8 0.87451 1
0.098039 0.8 0.87451 1
0.098039 0.8 0.87451 1
0.098039 0.8 0.87451 1
0.098039 0.8 0.87451 1
0.098039 0.8 0.87451 1
0.098039 0.8 0.87451 1
0.098039 0.8 0.87451 1
0.098039 0.8 0.87451 1
0.098039 0.8 0.87451 1
0.098039 0.8 0.87451 1
0.098039 0.8 0.87451 1
0.098039 0.8 0.87451 1
0.098039 0.8 0.87451 1
0.098039 0.8 0.87451 1
0.098039 0.8 0.87451 1
0.098039 0.8 0.87451 1
0.098039 0.8 0.87451 1
0.098039 0.8 0.87451 1
0.098039 0.8 0.87451 1
0.098039 0.8 0.87451 1
0.098039 0.8 0.87451 1
0.098039 0.8 0.87451 1
0.098039 0.8 0.87451 1
0.098039 0.8 0.87451 1
0.098039 0.8 0.87451 1
0.098039 0.8 0.87451 1
0.098039 0.8 0.87451 1
0.098039 0.8 0.87451 1
0.098039 0.8 0.87451 1
0.098039 0.8 0.87451 1
0.098039 0.8 0.87451 1
0.098039 0.8 0.87451 1
0.098039 0.8 0.87451 1
0.098039 0.8 0.87451 1
0.098039 0.8 0.87451 1
0.098039 0.8 0.87451 1
0.098039 0.8 0.87451 1
0.098039 0.8 0.87451 1
0.098039 0.8 0.87451 1
0.098039 0.8 0.87451 1
0.098039 0.8 0.87451 1
0.098039 0.8 0.87451 1
0.098039 0.8 0.87451 1
0.098039 0.8 0.87451 1
0.098039 0.8 0.87451 1
0.098039 0.8 0.87451 1
0.098039 0.8 0.87451 1
0.098039 0.8 0.87451 1
0.098039 0.8 0.87451 1
0.098039 0.8 0.87451 1
0.098039 0.8 0.87451 1
0.098039 0.8 0.87451 1
0.098039 0.8 0.87451 1
0.098039 0.8 0.87451 1
0.098039 0.8 0.87451 1
0.098039 0.8 0.87451 1
0.098039 0.8 0.87451 1
0.098039 0.8 0.87451 1
0.098039 0.8 0.87451 1
0.098039 0.8 0.87451 1
0.098039 0.8 0.87451 1
0.098039 0.8 0.87451 1
0.098039 0.8 0.87451 1
0.098039 0.8 0.87451 1
0.098039 0.8 0.87451 1
0.098039 0.8 0.87451 1
0.098039 0.8 0.87451 1
0.098039 0.8 0.87451 1
0.098039 0.8 0.87451 1
0.098039 0.8 0.87451 1
0.098039 0.8 0.87451 1
0.098039 0.8 0.87451 1
0.098039 0.8 0.87451 1
0.098039 0.8 0.87451 1
0.098039 0.8 0.87451 1
0.098039 0.8 0.87451 1
0.098039 0.8 0.87451 1
0.098039 0.8 0.87451 1
0.098039 0.8 0.87451 1
0.098039 0.8 0.87451 1
0.098039 0.8 0.87451 1
0.098039 0.8 0.87451 1
0.098039 0.8 0.87451 1
0.098039 0.8 0.87451 1
0.098039 0.8 0.87451 1
0.098039 0.8 0.87451 1
0.098039 0.8 0.87451 1
0.098039 0.8 0.87451 1
0.098039 0.8 0.87451 1
0.098039 0.8 0.87451 1
0.098039 0.8 0.87451 1
0.098039 0.8 0.87451 1
0.098039 0.8 0.87451 1
0.098039 0.8 0.87451 1
0.098039 0.8 0.87451 1
0.098039 0.8 0.87451 1
0.098039 0.8 0.87451 1
0.098039 0.8 0.87451 1
0.098039 0.8 0.87451 1
0.098039 0.8 0.87451 1
0.098039 0.8 0.87451 1
0.098039 0.8 0.87451 1
0.098039 0.8 0.87451 1
0.098039 0.8 0.87451 1
0.098039 0.8 0.87451 1
0.098039 0.8 0.87451 1
0.098039 0.8 0.87451 1
0.098039 0.8 0.87451 1
0.098039 0.8 0.87451 1
0.098039 0.8 0.87451 1
0.098039 0.8 0.87451 1
0.098039 0.8 0.87451 1
0.098039 0.8 0.87451 1
0.098039 0.8 0.87451 1
0.098039 0.8 0.87451 1
0.098039 0.8 0.87451 1
0.098039 0.8 0.87451 1
0.098039 0.8 0.87451 1
0.098039 0.8 0.87451 1
0.098039 0.8 0.87451 1
0.098039 0.8 0.87451 1
0.098039 0.8 0.87451 1
0.098039 0.8 0.87451 1
0.098039 0.8 0.87451 1
0.098039 0.8 0.87451 1
0.098039 0.8 0.87451 1
0.098039 0.8 0.87451 1
0.098039 0.8 0.87451 1
0.098039 0.8 0.87451 1
0.098039 0.8 0.87451 1
0.098039 0.8 0.87451 1
0.098039 0.8 0.87451 1
0.098039 0.8 0.87451 1
0.098039 0.8 0.87451 1
0.098039 0.8 0.87451 1
0.098039 0.8 0.87451 1
0.098039 0.8 0.87451 1
0.098039 0.8 0.87451 1
0.098039 0.8 0.87451 1
0.098039 0.8 0.87451 1
0.098039 0.8 0.87451 1
0.098039 0.8 0.87451 1
0.098039 0.8 0.87451 1
0.098039 0.8 0.87451 1
0.098039 0.8 0.87451 1
0.098039 0.8 0.87451 1
0.098039 0.8 0.87451 1
0.098039 0.8 0.87451 1
0.098039 0.8 0.87451 1
0.098039 0.8 0.87451 1
0.098039 0.8 0.87451 1
0.098039 0.8 0.87451 1
0.098039 0.8 0.87451 1
0.098039 0.8 0.87451 1
0.098039 0.8 0.87451 1
0.098039 0.8 0.87451 1
0.098039 0.8 0.87451 1
0.098039 0.8 0.87451 1
0.098039 0.8 0.87451 1
0.098039 0.8 0.87451 1
0.098039 0.8 0.87451 1
0.098039 0.8 0.87451 1
0.098039 0.8 0.87451 1
0.098039 0.8 0.87451 1
0.098039 0.8 0.87451 1
0.098039 0.8 0.87451 1
0.098039 0.8 0.87451 1
0.098039 0.8 0.87451 1
0.098039 0.8 0.87451 1
0.098039 0.8 0.87451 1
0.098039 0.8 0.87451 1
0.098039 0.8 0.87451 1
0.098039 0.8 0.87451 1
0.098039 0.8 0.87451 1
0.098039 0.8 0.87451 1
0.098039 0.8 0.87451 1
0.098039 0.8 0.87451 1
0.098039 0.8 0.87451 1
0.098039 0.8 0.87451 1
0.098039 0.8 0.87451 1
0.098039 0.8 0.87451 1
0.098039 0.8 0.87451 1
0.098039 0.8 0.87451 1
0.098039 0.8 0.87451 1
0.098039 0.8 0.87451 1
0.098039 0.8 0.87451 1
0.098039 0.8 0.87451 1
0.098039 0.8 0.87451 1
0.098039 0.8 0.87451 1
0.098039 0.8 0.87451 1
0.098039 0.8 0.87451 1
0.098039 0.8 0.87451 1
0.098039 0.8 0.87451 1
0.098039 0.8 0.87451 1
0.098039 0.8 0.87451 1
0.098039 0.8 0.87451 1
0.098039 0.8 0.87451 1
0.098039 0.8 0.87451 1
0.098039 0.8 0.87451 1
0.098039 0.8 0.87451 1
0.098039 0.8 0.87451 1
0.098039 0.8 0.87451 1
0.098039 0.8 0.87451 1
0.098039 0.8 0.87451 1
0.098039 0.8 0.87451 1
0.098039 0.8 0.87451 1
0.098039 0.8 0.87451 1
0.098039 0.8 0.87451 1
0.098039 0.8 0.87451 1
0.098039 0.8 0.87451 1
0.098039 0.8 0.87451 1
0.098039 0.8 0.87451 1
0.098039 0.8 0.87451 1
0.098039 0.8 0.87451 1
0.098039 0.8 0.87451 1
0.098039 0.8 0.87451 1
0.098039 0.8 0.87451 1
0.098039 0.8 0.87451 1
0.098039 0.8 0.87451 1
0.098039 0.8 0.87451 1
0.098039 0.8 0.87451 1
0.098039 0.8 0.87451 1
0.098039 0.8 0.87451 1
0.098039 0.8 0.87451 1
0.098039 0.8 0.87451 1
0.098039 0.8 0.87451 1
0.098039 0.8 0.87451 1
0.098039 0.8 0.87451 1
0.098039 0.8 0.87451 1
0.098039 0.8 0.87451 1
0.098039 0.8 0.87451 1
0.098039 0.8 0.87451 1
0.098039 0.8 0.87451 1
0.098039 0.8 0.87451 1
0.098039 0.8 0.87451 1
0.098039 0.8 0.87451 1
0.098039 0.8 0.87451 1
0.098039 0.8 0.87451 1
0.098039 0.8 0.87451 1
0.098039 0.8 0.87451 1
0.098039 0.8 0.87451 1
0.098039 0.8 0.87451 1
0.098039 0.8 0.87451 1
0.098039 0.8 0.87451 1
0.098039 0.8 0.87451 1
0.098039 0.8 0.87451 1
0.098039 0.8 0.87451 1
0.098039 0.8 0.87451 1
0.098039 0.8 0.87451 1
0.098039 0.8 0.87451 1
0.098039 0.8 0.87451 1
0.098039 0.8 0.87451 1
0.098039 0.8 0.87451 1
0.098039 0.8 0.87451 1
0.098039 0.8 0.87451 1
0.098039 0.8 0.87451 1
0.098039 0.8 0.87451 1
0.098039 0.8 0.87451 1
0.098039 0.8 0.87451 1
0.098039 0.8 0.87451 1
0.098039 0.8 0.87451 1
0.098039 0.8 0.87451 1
0.098039 0.8 0.87451 1
0.098039 0.8 0.87451 1
0.098039 0.8 0.87451 1
0.098039 0.8 0.87451 1
0.098039 0.8 0.87451 1
0.098039 0.8 0.87451 1
0.098039 0.8 0.87451 1
0.098039 0.8 0.87451 1
0.098039 0.8 0.87451 1
0.098039 0.8 0.87451 1
0.098039 0.8 0.87451 1
0.098039 0.8 0.87451 1
0.098039 0.8 0.87451 1
0.098039 0.8 0.87451 1
0.098039 0.8 0.87451 1
0.098039 0.8 0.87451 1
0.098039 0.8 0.87451 1
0.098039 0.8 0.87451 1
0.098039 0.8 0.87451 1
0.098039 0.8 0.87451 1
0.098039 0.8 0.87451 1
0.098039 0.8 0.87451 1
0.098039 0.8 0.87451 1
0.098039 0.8 0.87451 1
0.098039 0.8 0.87451 1
0.098039 0.8 0.87451 1
0.098039 0.8 0.87451 1
0.098039 0.8 0.87451 1
0.098039 0.8 0.87451 1
0.098039 0.8 0.87451 1
0.098039 0.8 0.87451 1
0.098039 0.8 0.87451 1
0.098039 0.8 0.87451 1
0.098039 0.8 0.87451 1
0.098039 0.8 0.87451 1
0.098039 0.8 0.87451 1
0.098039 0.8 0.87451 1
0.098039 0.8 0.87451 1
0.098039 0.8 0.87451 1
0.098039 0.8 0.87451 1
0.098039 0.8 0.87451 1
0.098039 0.8 0.87451 1
0.098039 0.8 0.87451 1
0.098039 0.8 0.87451 1
0.098039 0.8 0.87451 1
0.098039 0.8 0.87451 1
0.098039 0.8 0.87451 1
0.098039 0.8 0.87451 1
0.098039 0.8 0.87451 1
0.098039 0.8 0.87451 1
0.098039 0.8 0.87451 1
0.098039 0.8 0.87451 1
0.098039 0.8 0.87451 1
0.098039 0.8 0.87451 1
0.098039 0.8 0.87451 1
0.098039 0.8 0.87451 1
0.098039 0.8 0.87451 1
0.098039 0.8 0.87451 1
0.098039 0.8 0.87451 1
0.098039 0.8 0.87451 1
0.098039 0.8 0.87451 1
0.098039 0.8 0.87451 1
0.098039 0.8 0.87451 1
0.098039 0.8 0.87451 1
0.098039 0.8 0.87451 1
0.098039 0.8 0.87451 1
0.098039 0.8 0.87451 1
0.098039 0.8 0.87451 1
0.098039 0.8 0.87451 1
0.098039 0.8 0.87451 1
0.098039 0.8 0.87451 1
0.098039 0.8 0.87451 1
0.098039 0.8 0.87451 1
0.098039 0.8 0.87451 1
0.098039 0.8 0.87451 1
0.098039 0.8 0.87451 1
0.098039 0.8 0.87451 1
0.098039 0.8 0.87451 1
0.098039 0.8 0.87451 1
0.098039 0.8 0.87451 1
0.098039 0.8 0.87451 1
0.098039 0.8 0.87451 1
0.098039 0.8 0.87451 1
0.098039 0.8 0.87451 1
0.098039 0.8 0.87451 1
0.098039 0.8 0.87451 1
0.098039 0.8 0.87451 1
0.098039 0.8 0.87451 1
0.098039 0.8 0.87451 1
0.098039 0.8 0.87451 1
0.098039 0.8 0.87451 1
0.098039 0.8 0.87451 1
0.098039 0.8 0.87451 1
0.098039 0.8 0.87451 1
0.098039 0.8 0.87451 1
0.098039 0.8 0.87451 1
0.098039 0.8 0.87451 1
0.098039 0.8 0.87451 1
0.098039 0.8 0.87451 1
0.098039 0.8 0.87451 1
0.098039 0.8 0.87451 1
0.098039 0.8 0.87451 1
0.098039 0.8 0.87451 1
0.098039 0.8 0.87451 1
0.098039 0.8 0.87451 1
0.098039 0.8 0.87451 1
0.098039 0.8 0.87451 1
0.098039 0.8 0.87451 1
0.098039 0.8 0.87451 1
0.098039 0.8 0.87451 1
0.098039 0.8 0.87451 1
0.098039 0.8 0.87451 1
0.098039 0.8 0.87451 1
0.098039 0.8 0.87451 1
0.098039 0.8 0.87451 1
0.098039 0.8 0.87451 1
0.098039 0.8 0.87451 1
0.098039 0.8 0.87451 1
0.098039 0.8 0.87451 1
0.098039 0.8 0.87451 1
0.098039 0.8 0.87451 1
0.098039 0.8 0.87451 1
0.098039 0.8 0.87451 1
0.098039 0.8 0.87451 1
0.098039 0.8 0.87451 1
0.098039 0.8 0.87451 1
0.098039 0.8 0.87451 1
0.098039 0.8 0.87451 1
0.098039 0.8 0.87451 1
0.098039 0.8 0.87451 1
0.098039 0.8 0.87451 1
0.098039 0.8 0.87451 1
0.098039 0.8 0.87451 1
0.098039 0.8 0.87451 1
0.098039 0.8 0.87451 1
0.098039 0.8 0.87451 1
0.098039 0.8 0.87451 1
0.098039 0.8 0.87451 1
0.098039 0.8 0.87451 1
0.098039 0.8 0.87451 1
0.098039 0.8 0.87451 1
0.098039 0.8 0.87451 1
0.098039 0.8 0.87451 1
0.098039 0.8 0.87451 1
0.098039 0.8 0.87451 1
0.098039 0.8 0.87451 1
0.098039 0.8 0.87451 1
0.098039 0.8 0.87451 1
0.098039 0.8 0.87451 1
0.098039 0.8 0.87451 1
0.098039 0.8 0.87451 1
0.098039 0.8 0.87451 1
0.098039 0.8 0.87451 1
0.098039 0.8 0.87451 1
0.098039 0.8 0.87451 1
0.098039 0.8 0.87451 1
0.098039 0.8 0.87451 1
0.098039 0.8 0.87451 1
0.098039 0.8 0.87451 1
0.098039 0.8 0.87451 1
0.098039 0.8 0.87451 1
0.098039 0.8 0.87451 1
0.098039 0.8 0.87451 1
0.098039 0.8 0.87451 1
0.098039 0.8 0.87451 1
0.098039 0.8 0.87451 1
0.098039 0.8 0.87451 1
0.098039 0.8 0.87451 1
0.098039 0.8 0.87451 1
0.098039 0.8 0.87451 1
0.098039 0.8 0.87451 1
0.098039 0.8 0.87451 1
0.098039 0.8 0.87451 1
0.098039 0.8 0.87451 1
0.098039 0.8 0.87451 1
0.098039 0.8 0.87451 1
0.098039 0.8 0.87451 1
0.098039 0.8 0.87451 1
0.098039 0.8 0.87451 1
0.098039 0.8 0.87451 1
0.098039 0.8 0.87451 1
0.098039 0.8 0.87451 1
0.098039 0.8 0.87451 1
0.098039 0.8 0.87451 1
0.098039 0.8 0.87451 1
0.098039 0.8 0.87451 1
0.098039 0.8 0.87451 1
0.098039 0.8 0.87451 1
0.098039 0.8 0.87451 1
0.098039 0.8 0.87451 1
0.098039 0.8 0.87451 1
0.098039 0.8 0.87451 1
0.098039 0.8 0.87451 1
0.098039 0.8 0.87451 1
0.098039 0.8 0.87451 1
0.098039 0.8 0.87451 1
0.098039 0.8 0.87451 1
0.098039 0.8 0.87451 1
0.098039 0.8 0.87451 1
0.098039 0.8 0.87451 1
0.098039 0.8 0.87451 1
0.098039 0.8 0.87451 1
0.098039 0.8 0.87451 1
0.098039 0.8 0.87451 1
0.098039 0.8 0.87451 1
0.098039 0.8 0.87451 1
0.098039 0.8 0.87451 1
0.098039 0.8 0.87451 1
0.098039 0.8 0.87451 1
0.098039 0.8 0.87451 1
0.098039 0.8 0.87451 1
0.098039 0.8 0.87451 1
0.098039 0.8 0.87451 1
0.098039 0.8 0.87451 1
0.098039 0.8 0.87451 1
0.098039 0.8 0.87451 1
0.098039 0.8 0.87451 1
0.098039 0.8 0.87451 1
0.098039 0.8 0.87451 1
0.098039 0.8 0.87451 1
0.098039 0.8 0.87451 1
0.098039 0.8 0.87451 1
0.098039 0.8 0.87451 1
0.098039 0.8 0.87451 1
0.098039 0.8 0.87451 1
0.098039 0.8 0.87451 1
0.098039 0.8 0.87451 1
0.098039 0.8 0.87451 1
0.098039 0.8 0.87451 1
0.098039 0.8 0.87451 1
0.098039 0.8 0.87451 1
0.098039 0.8 0.87451 1
0.098039 0.8 0.87451 1
0.098039 0.8 0.87451 1
0.098039 0.8 0.87451 1
0.098039 0.8 0.87451 1
0.098039 0.8 0.87451 1
0.098039 0.8 0.87451 1
0.098039 0.8 0.87451 1
0.098039 0.8 0.87451 1
0.098039 0.8 0.87451 1
0.098039 0.8 0.87451 1
0.098039 0.8 0.87451 1
0.098039 0.8 0.87451 1
0.098039 0.8 0.87451 1
0.098039 0.8 0.87451 1
0.098039 0.8 0.87451 1
0.098039 0.8 0.87451 1
0.098039 0.8 0.87451 1
0.098039 0.8 0.87451 1
0.098039 0.8 0.87451 1
0.098039 0.8 0.87451 1
0.098039 0.8 0.87451 1
0.098039 0.8 0.87451 1
0.098039 0.8 0.87451 1
0.098039 0.8 0.87451 1
0.098039 0.8 0.87451 1
0.098039 0.8 0.87451 1
0.098039 0.8 0.87451 1
0.098039 0.8 0.87451 1
0.098039 0.8 0.87451 1
0.098039 0.8 0.87451 1
0.098039 0.8 0.87451 1
0.098039 0.8 0.87451 1
0.098039 0.8 0.87451 1
0.098039 0.8 0.87451 1
0.098039 0.8 0.87451 1
0.098039 0.8 0.87451 1
0.098039 0.8 0.87451 1
0.098039 0.8 0.87451 1
0.098039 0.8 0.87451 1
0.098039 0.8 0.87451 1
0.098039 0.8 0.87451 1
0.098039 0.8 0.87451 1
0.098039 0.8 0.87451 1
0.098039 0.8 0.87451 1
0.098039 0.8 0.87451 1
0.098039 0.8 0.87451 1
0.098039 0.8 0.87451 1
0.098039 0.8 0.87451 1
0.098039 0.8 0.87451 1
0.098039 0.8 0.87451 1
0.098039 0.8 0.87451 1
0.098039 0.8 0.87451 1
0.098039 0.8 0.87451 1
0.098039 0.8 0.87451 1
0.098039 0.8 0.87451 1
0.098039 0.8 0.87451 1
0.098039 0.8 0.87451 1
0.098039 0.8 0.87451 1
0.098039 0.8 0.87451 1
0.098039 0.8 0.87451 1
0.098039 0.8 0.87451 1
0.098039 0.8 0.87451 1
0.098039 0.8 0.87451 1
0.098039 0.8 0.87451 1
0.098039 0.8 0.87451 1
0.098039 0.8 0.87451 1
0.098039 0.8 0.87451 1
0.098039 0.8 0.87451 1
0.098039 0.8 0.87451 1
0.098039 0.8 0.87451 1
0.098039 0.8 0.87451 1
0.098039 0.8 0.87451 1
0.098039 0.8 0.87451 1
0.098039 0.8 0.87451 1
0.098039 0.8 0.87451 1
0.098039 0.8 0.87451 1
0.098039 0.8 0.87451 1
0.098039 0.8 0.87451 1
0.098039 0.8 0.87451 1
0.098039 0.8 0.87451 1
0.098039 0.8 0.87451 1
0.098039 0.8 0.87451 1
0.098039 0.8 0.87451 1
0.098039 0.8 0.87451 1
0.098039 0.8 0.87451 1
0.098039 0.8 0.87451 1
0.098039 0.8 0.87451 1
0.098039 0.8 0.87451 1
0.098039 0.8 0.87451 1
0.098039 0.8 0.87451 1
0.098039 0.8 0.87451 1
0.098039 0.8 0.87451 1
0.098039 0.8 0.87451 1
0.098039 0.8 0.87451 1
0.098039 0.8 0.87451 1
0.098039 0.8 0.87451 1
0.098039 0.8 0.87451 1
0.098039 0.8 0.87451 1
0.098039 0.8 0.87451 1
0.098039 0.8 0.87451 1
0.098039 0.8 0.87451 1
0.098039 0.8 0.87451 1
0.098039 0.8 0.87451 1
0.098039 0.8 0.87451 1
0.098039 0.8 0.87451 1
0.098039 0.8 0.87451 1
0.098039 0.8 0.87451 1
0.098039 0.8 0.87451 1
0.098039 0.8 0.87451 1
0.098039 0.8 0.87451 1
0.098039 0.8 0.87451 1
0.098039 0.8 0.87451 1
0.098039 0.8 0.87451 1
0.098039 0.8 0.87451 1
0.098039 0.8 0.87451 1
0.098039 0.8 0.87451 1
0.098039 0.8 0.87451 1
0.098039 0.8 0.87451 1
0.098039 0.8 0.87451 1
0.098039 0.8 0.87451 1
0.098039 0.8 0.87451 1
0.098039 0.8 0.87451 1
0.098039 0.8 0.87451 1
0.098039 0.8 0.87451 1
0.098039 0.8 0.87451 1
0.098039 0.8 0.87451 1
0.098039 0.8 0.87451 1
0.098039 0.8 0.87451 1
0.098039 0.8 0.87451 1
0.098039 0.8 0.87451 1
0.098039 0.8 0.87451 1
0.098039 0.8 0.87451 1
0.098039 0.8 0.87451 1
0.098039 0.8 0.87451 1
0.098039 0.8 0.87451 1
0.098039 0.8 0.87451 1
0.098039 0.8 0.87451 1
0.098039 0.8 0.87451 1
0.098039 0.8 0.87451 1
0.098039 0.8 0.87451 1
0.098039 0.8 0.87451 1
0.098039 0.8 0.87451 1
0.098039 0.8 0.87451 1
0.098039 0.8 0.87451 1
0.098039 0.8 0.87451 1
0.098039 0.8 0.87451 1
0.098039 0.8 0.87451 1
0.098039 0.8 0.87451 1
0.098039 0.8 0.87451 1
0.098039 0.8 0.87451 1
0.098039 0.8 0.87451 1
0.098039 0.8 0.87451 1
0.098039 0.8 0.87451 1
0.098039 0.8 0.87451 1
0.098039 0.8 0.87451 1
0.098039 0.8 0.87451 1
0.098039 0.8 0.87451 1
0.098039 0.8 0.87451 1
0.098039 0.8 0.87451 1
0.098039 0.8 0.87451 1
0.098039 0.8 0.87451 1
0.098039 0.8 0.87451 1
0.098039 0.8 0.87451 1
0.098039 0.8 0.87451 1
0.098039 0.8 0.87451 1
0.098039 0.8 0.87451 1
0.098039 0.8 0.87451 1
0.098039 0.8 0.87451 1
0.098039 0.8 0.87451 1
0.098039 0.8 0.87451 1
0.098039 0.8 0.87451 1
0.098039 0.8 0.87451 1
0.098039 0.8 0.87451 1
0.098039 0.8 0.87451 1
0.098039 0.8 0.87451 1
0.098039 0.8 0.87451 1
0.098039 0.8 0.87451 1
0.098039 0.8 0.87451 1
0.098039 0.8 0.87451 1
0.098039 0.8 0.87451 1
0.098039 0.8 0.87451 1
0.098039 0.8 0.87451 1
0.098039 0.8 0.87451 1
0.098039 0.8 0.87451 1
0.098039 0.8 0.87451 1
0.098039 0.8 0.87451 1
0.098039 0.8 0.87451 1
0.098039 0.8 0.87451 1
0.098039 0.8 0.87451 1
0.098039 0.8 0.87451 1
0.098039 0.8 0.87451 1
0.098039 0.8 0.87451 1
0.098039 0.8 0.87451 1
0.098039 0.8 0.87451 1
0.098039 0.8 0.87451 1
0.098039 0.8 0.87451 1
0.098039 0.8 0.87451 1
0.098039 0.8 0.87451 1
0.098039 0.8 0.87451 1
0.098039 0.8 0.87451 1
0.098039 0.8 0.87451 1
0.098039 0.8 0.87451 1
0.098039 0.8 0.87451 1
0.098039 0.8 0.87451 1
0.098039 0.8 0.87451 1
0.098039 0.8 0.87451 1
0.098039 0.8 0.87451 1
0.098039 0.8 0.87451 1
0.098039 0.8 0.87451 1
0.098039 0.8 0.87451 1
0.098039 0.8 0.87451 1
0.098039 0.8 0.87451 1
0.098039 0.8 0.87451 1
0.098039 0.8 0.87451 1
0.098039 0.8 0.87451 1
0.098039 0.8 0.87451 1
0.098039 0.8 0.87451 1
0.098039 0.8 0.87451 1
0.098039 0.8 0.87451 1
0.098039 0.8 0.87451 1
0.098039 0.8 0.87451 1
0.098039 0.8 0.87451 1
0.098039 0.8 0.87451 1
0.098039 0.8 0.87451 1
0.098039 0.8 0.87451 1
0.098039 0.8 0.87451 1
0.098039 0.8 0.87451 1
0.098039 0.8 0.87451 1
0.098039 0.8 0.87451 1
0.098039 0.8 0.87451 1
0.098039 0.8 0.87451 1
0.098039 0.8 0.87451 1
0.098039 0.8 0.87451 1
0.098039 0.8 0.87451 1
0.098039 0.8 0.87451 1
0.098039 0.8 0.87451 1
0.098039 0.8 0.87451 1
0.098039 0.8 0.87451 1
0.098039 0.8 0.87451 1
0.098039 0.8 0.87451 1
0.098039 0.8 0.87451 1
0.098039 0.8 0.87451 1
0.098039 0.8 0.87451 1
0.098039 0.8 0.87451 1
0.098039 0.8 0.87451 1
0.098039 0.8 0.87451 1
0.098039 0.8 0.87451 1
0.098039 0.8 0.87451 1
0.098039 0.8 0.87451 1
0.098039 0.8 0.87451 1
0.098039 0.8 0.87451 1
0.098039 0.8 0.87451 1
0.098039 0.8 0.87451 1
0.098039 0.8 0.87451 1
0.098039 0.8 0.87451 1
0.098039 0.8 0.87451 1
0.098039 0.8 0.87451 1
0.098039 0.8 0.87451 1
0.098039 0.8 0.87451 1
0.098039 0.8 0.87451 1
0.098039 0.8 0.87451 1
0.098039 0.8 0.87451 1
0.098039 0.8 0.87451 1
0.098039 0.8 0.87451 1
0.098039 0.8 0.87451 1
0.098039 0.8 0.87451 1
0.098039 0.8 0.87451 1
0.098039 0.8 0.87451 1
0.098039 0.8 0.87451 1
0.098039 0.8 0.87451 1
0.098039 0.8 0.87451 1
0.098039 0.8 0.87451 1
0.098039 0.8 0.87451 1
0.098039 0.8 0.87451 1
0.098039 0.8 0.87451 1
0.098039 0.8 0.87451 1