# vtk DataFile Version 3.0
Gocad TSurf to VTK
ASCII
DATASET POLYDATA
POINTS 185 float
21541800.000 4559255.000 -1223.750
21541400.000 4558990.000 -1075.000
21541675.000 4559302.500 -1202.500
21541400.000 4559030.000 -1090.000
21541950.000 4559615.000 -1330.000
21541900.000 4559217.500 -1230.000
21542200.000 4559520.000 -1372.500
21542050.000 4559167.500 -1223.750
21542400.000 4559445.000 -1385.000
21542175.000 4559125.000 -1208.750
21542700.000 4559345.000 -1372.500
21542275.000 4559082.500 -1181.250
21542950.000 4559260.000 -1342.500
21543150.000 4559175.000 -1287.500
21543725.000 4559395.000 -1476.250
21543350.000 4559522.500 -1521.250
21544025.000 4559267.500 -1393.750
21544500.000 4559530.000 -1610.000
21544000.000 4559700.000 -1670.000
21544900.000 4559360.000 -1500.000
21544900.000 4559510.000 -1503.750
21544600.000 4559637.500 -1586.250
21545050.000 4559452.500 -1472.500
21544900.000 4559660.000 -1507.500
21545200.000 4559545.000 -1445.000
21544900.000 4559810.000 -1511.250
21544700.000 4559745.000 -1562.500
21545350.000 4559637.500 -1417.500
21544900.000 4559960.000 -1515.000
21544800.000 4559852.500 -1538.750
21545500.000 4559730.000 -1390.000
21545275.000 4560467.500 -1546.250
21544900.000 4560610.000 -1587.500
21545725.000 4560295.000 -1452.500
21545650.000 4560975.000 -1577.500
21545800.000 4560242.500 -1480.000
21546100.000 4560755.000 -1570.000
21545925.000 4560172.500 -1480.000
21546025.000 4560102.500 -1466.250
21546350.000 4560615.000 -1570.000
21546100.000 4560042.500 -1442.500
21546550.000 4560475.000 -1542.500
21546700.000 4560355.000 -1495.000
21547075.000 4560847.500 -1618.750
21546775.000 4561057.500 -1660.000
21547300.000 4560667.500 -1547.500
21547600.000 4561220.000 -1695.000
21547200.000 4561500.000 -1750.000
21547900.000 4560980.000 -1600.000
21548125.000 4561497.500 -1551.250
21547900.000 4561677.500 -1622.500
21548200.000 4561465.000 -1561.250
21548350.000 4562015.000 -1502.500
21548250.000 4561432.500 -1561.250
21548500.000 4561950.000 -1522.500
21548325.000 4561390.000 -1551.250
21548600.000 4561885.000 -1522.500
21548400.000 4561355.000 -1533.750
21548750.000 4561800.000 -1502.500
21548900.000 4561730.000 -1467.500
21549175.000 4562210.000 -1453.750
21548950.000 4562337.500 -1483.750
21549400.000 4562105.000 -1401.250
21549600.000 4562620.000 -1405.000
21549300.000 4562790.000 -1445.000
21549900.000 4562480.000 -1335.000
21550325.000 4563097.500 -1373.750
21550100.000 4563225.000 -1403.750
21550550.000 4562992.500 -1321.250
21551050.000 4563575.000 -1342.500
21550550.000 4562935.000 -1303.750
21551200.000 4563390.000 -1272.500
21551200.000 4563505.000 -1307.500
21551850.000 4563845.000 -1241.250
21551850.000 4564017.500 -1293.750
21551775.000 4564052.500 -1311.250
21552500.000 4564300.000 -1210.000
21552500.000 4564530.000 -1280.000
21552750.000 4564650.000 -1151.250
21552750.000 4564822.500 -1203.750
21552500.000 4564880.000 -1295.000
21553000.000 4565000.000 -1092.500
21553000.000 4565115.000 -1127.500
21552750.000 4565085.000 -1215.000
21553250.000 4565350.000 -1033.750
21553250.000 4565407.500 -1051.250
21553000.000 4565290.000 -1135.000
21553500.000 4565700.000 -975.000
21553250.000 4565495.000 -1055.000
21553250.000 4565552.500 -1045.000
21553000.000 4565405.000 -1115.000
21553250.000 4565575.000 -1045.000
21553000.000 4565420.000 -1115.000
21553500.000 4565730.000 -975.000
21553250.000 4565605.000 -1045.000
21553000.000 4565440.000 -1115.000
21553500.000 4565770.000 -975.000
21553250.000 4565605.000 -1037.500
21553000.000 4565440.000 -1110.000
21553500.000 4565770.000 -965.000
21552750.000 4565275.000 -1182.500
21552750.000 4565275.000 -1185.000
21552500.000 4565110.000 -1255.000
21552750.000 4565265.000 -1185.000
21552750.000 4565257.500 -1185.000
21551650.000 4564562.500 -1302.500
21551650.000 4564390.000 -1332.500
21551575.000 4564595.000 -1292.500
21550800.000 4564015.000 -1350.000
21550650.000 4564080.000 -1330.000
21550800.000 4563900.000 -1370.000
21549950.000 4563467.500 -1397.500
21551650.000 4564127.500 -1321.250
21550800.000 4563725.000 -1362.500
21551700.000 4564095.000 -1321.250
21550900.000 4563660.000 -1362.500
21549950.000 4563322.500 -1403.750
21549950.000 4563410.000 -1407.500
21549100.000 4562920.000 -1445.000
21548800.000 4562435.000 -1483.750
21548800.000 4563050.000 -1405.000
21548575.000 4562532.500 -1453.750
21548200.000 4562135.000 -1550.000
21548500.000 4562592.500 -1477.500
21548400.000 4562662.500 -1491.250
21548275.000 4562732.500 -1491.250
21548200.000 4562785.000 -1463.750
21548000.000 4562275.000 -1577.500
21547750.000 4562415.000 -1577.500
21547600.000 4561887.500 -1663.750
21547225.000 4562097.500 -1663.750
21547600.000 4562520.000 -1522.500
21547000.000 4562255.000 -1581.250
21546700.000 4561780.000 -1750.000
21546400.000 4561990.000 -1640.000
21546400.000 4561267.500 -1660.000
21546175.000 4561425.000 -1577.500
21545950.000 4560860.000 -1515.000
21546025.000 4561482.500 -1608.750
21545900.000 4561530.000 -1622.500
21545825.000 4561567.500 -1626.250
21545675.000 4561622.500 -1598.750
21545400.000 4561070.000 -1605.000
21545250.000 4561145.000 -1612.500
21544675.000 4560722.500 -1598.750
21544400.000 4560150.000 -1570.000
21544950.000 4561255.000 -1557.500
21544225.000 4560887.500 -1516.250
21544100.000 4560300.000 -1585.000
21543500.000 4560520.000 -1475.000
21544075.000 4560150.000 -1606.250
21544300.000 4560037.500 -1595.000
21543925.000 4560200.000 -1612.500
21544050.000 4560000.000 -1627.500
21543750.000 4560100.000 -1640.000
21544200.000 4559925.000 -1620.000
21544425.000 4559995.000 -1580.000
21544025.000 4559850.000 -1648.750
21544100.000 4559812.500 -1645.000
21543575.000 4560000.000 -1667.500
21543450.000 4560210.000 -1585.000
21543475.000 4560365.000 -1530.000
21543425.000 4560055.000 -1640.000
21543250.000 4560285.000 -1572.500
21543400.000 4559900.000 -1695.000
21543125.000 4560167.500 -1621.250
21542900.000 4559672.500 -1540.000
21543000.000 4560050.000 -1670.000
21542600.000 4559785.000 -1521.250
21542225.000 4559927.500 -1457.500
21542500.000 4560240.000 -1585.000
21541950.000 4559635.000 -1337.500
21541675.000 4559332.500 -1213.750
21542225.000 4559937.500 -1461.250
21541950.000 4559645.000 -1337.500
21542225.000 4559942.500 -1461.250
21541675.000 4559347.500 -1213.750
21541400.000 4559050.000 -1090.000
21542750.000 4560310.000 -1557.500
21543000.000 4560380.000 -1530.000
21543250.000 4560450.000 -1502.500
21543375.000 4560402.500 -1523.750
21544475.000 4559685.000 -1600.000
21544450.000 4559840.000 -1590.000
21549725.000 4563565.000 -1367.500

POLYGONS 315 1260
3 39 135 44
3 42 43 45
3 20 17 21
3 12 10 15
3 91 92 95
3 5 6 8
3 13 14 16
3 81 82 84
3 173 174 175
3 26 183 29
3 8 6 168
3 115 67 113
3 121 52 122
3 113 116 117
3 25 26 29
3 54 52 121
3 161 181 149
3 94 95 98
3 38 39 41
3 21 182 26
3 55 48 53
3 37 36 39
3 85 86 88
3 53 54 56
3 51 52 54
3 135 136 133
3 112 113 110
3 93 87 91
3 25 23 26
3 140 141 134
3 127 129 128
3 79 80 83
3 83 104 86
3 77 76 74
3 102 105 107
3 160 162 163
3 163 162 165
3 152 149 148
3 53 51 54
3 96 93 94
3 129 47 130
3 65 63 66
3 128 129 130
3 92 90 103
3 119 120 118
3 61 64 60
3 183 158 155
3 51 49 52
3 181 180 149
3 146 144 147
3 23 21 26
3 119 121 120
3 66 67 115
3 50 46 129
3 77 114 112
3 131 130 132
3 4 172 171
3 80 102 83
3 153 157 154
3 35 30 33
3 156 155 151
3 104 102 103
3 114 115 112
3 168 170 167
3 9 10 12
3 10 166 15
3 181 160 163
3 110 113 117
3 82 83 86
3 49 46 50
3 156 145 28
3 69 66 115
3 159 160 154
3 154 161 152
3 125 127 128
3 142 31 32
3 20 19 17
3 179 165 178
3 106 110 108
3 182 17 18
3 67 64 116
3 173 175 170
3 40 38 41
3 7 5 8
3 105 108 107
3 32 145 144
3 136 134 133
3 94 91 95
3 171 172 176
3 171 176 174
3 27 28 30
3 136 138 134
3 91 89 92
3 178 167 170
3 69 115 114
3 88 90 89
3 64 63 60
3 123 124 120
3 11 1 9
3 95 101 100
3 157 18 159
3 38 30 37
3 57 48 55
3 90 104 103
3 139 140 134
3 10 8 166
3 165 164 167
3 66 63 67
3 138 34 139
3 44 135 133
3 156 151 145
3 55 53 56
3 96 94 97
3 34 33 31
3 67 116 113
3 45 46 48
3 42 41 43
3 55 56 58
3 154 160 161
3 89 90 92
3 37 35 36
3 154 157 159
3 87 89 91
3 72 68 69
3 158 18 157
3 118 64 61
3 29 156 28
3 138 139 134
3 172 3 177
3 43 47 46
3 43 44 47
3 74 72 75
3 16 14 17
3 54 121 119
3 63 64 67
3 182 183 26
3 2 3 172
3 99 96 97
3 106 112 110
3 14 18 17
3 173 171 174
3 68 65 66
3 158 157 155
3 76 73 74
3 79 83 82
3 27 25 28
3 101 102 100
3 61 119 118
3 31 30 28
3 121 123 120
3 81 79 82
3 141 143 146
3 72 71 68
3 118 120 184
3 150 152 148
3 57 55 58
3 155 153 151
3 33 137 36
3 162 164 165
3 166 167 164
3 103 102 101
3 22 19 20
3 62 60 63
3 37 30 35
3 97 94 98
3 121 122 123
3 157 153 155
3 74 73 72
3 5 1 0
3 132 133 134
3 75 69 114
3 4 2 172
3 56 119 61
3 140 143 141
3 24 23 25
3 7 8 10
3 166 168 167
3 152 161 149
3 98 95 100
3 122 50 127
3 15 166 164
3 159 18 164
3 39 36 135
3 83 102 104
3 63 65 62
3 77 80 79
3 163 165 179
3 129 46 47
3 183 156 29
3 137 33 34
3 41 44 43
3 125 128 126
3 92 103 101
3 14 15 18
3 7 1 5
3 137 136 135
3 105 106 108
3 0 1 2
3 159 164 162
3 64 118 116
3 127 50 129
3 35 33 36
3 80 106 105
3 152 153 154
3 0 4 6
3 52 50 122
3 6 4 169
3 58 56 61
3 12 15 14
3 150 148 145
3 159 162 160
3 9 1 7
3 168 169 170
3 102 80 105
3 77 74 75
3 93 91 94
3 58 61 60
3 41 39 44
3 144 148 147
3 76 77 78
3 182 18 158
3 11 12 13
3 77 112 106
3 68 66 69
3 87 85 88
3 87 88 89
3 169 171 173
3 24 25 27
3 53 48 51
3 59 60 62
3 40 41 42
3 156 183 155
3 70 65 68
3 21 17 182
3 44 133 47
3 165 167 178
3 0 2 4
3 180 163 179
3 34 31 142
3 84 82 85
3 31 28 32
3 32 28 145
3 82 86 85
3 181 163 180
3 138 137 34
3 124 122 127
3 40 30 38
3 128 130 131
3 123 122 124
3 125 126 120
3 78 77 79
3 45 43 46
3 147 148 149
3 117 118 111
3 11 9 12
3 71 70 68
3 57 58 59
3 51 48 49
3 56 54 119
3 33 30 31
3 15 164 18
3 108 109 107
3 116 118 117
3 16 17 19
3 13 12 14
3 130 133 132
3 169 4 171
3 87 84 85
3 130 47 133
3 77 75 114
3 38 37 39
3 95 92 101
3 169 173 170
3 25 29 28
3 124 125 120
3 52 49 50
3 150 153 152
3 151 150 145
3 161 160 181
3 59 58 60
3 183 182 158
3 111 118 184
3 22 23 24
3 22 20 23
3 72 69 75
3 142 32 143
3 139 34 142
3 153 150 151
3 126 128 131
3 80 77 106
3 111 184 109
3 2 1 3
3 140 142 143
3 9 7 10
3 49 48 46
3 139 142 140
3 73 71 72
3 143 144 146
3 23 20 21
3 124 127 125
3 36 137 135
3 5 0 6
3 172 177 176
3 86 90 88
3 144 145 148
3 78 79 81
3 108 110 111
3 86 104 90
3 8 168 166
3 115 113 112
3 110 117 111
3 108 111 109
3 6 169 168
3 136 137 138
3 143 32 144

POINT_DATA 185
COLOR_SCALARS GocadColor 4
0.0930037 0.0930037 0.439216 1
0.0930037 0.0930037 0.439216 1
0.0930037 0.0930037 0.439216 1
0.0930037 0.0930037 0.439216 1
0.0930037 0.0930037 0.439216 1
0.0930037 0.0930037 0.439216 1
0.0930037 0.0930037 0.439216 1
0.0930037 0.0930037 0.439216 1
0.0930037 0.0930037 0.439216 1
0.0930037 0.0930037 0.439216 1
0.0930037 0.0930037 0.439216 1
0.0930037 0.0930037 0.439216 1
0.0930037 0.0930037 0.439216 1
0.0930037 0.0930037 0.439216 1
0.0930037 0.0930037 0.439216 1
0.0930037 0.0930037 0.439216 1
0.0930037 0.0930037 0.439216 1
0.0930037 0.0930037 0.439216 1
0.0930037 0.0930037 0.439216 1
0.0930037 0.0930037 0.439216 1
0.0930037 0.0930037 0.439216 1
0.0930037 0.0930037 0.439216 1
0.0930037 0.0930037 0.439216 1
0.0930037 0.0930037 0.439216 1
0.0930037 0.0930037 0.439216 1
0.0930037 0.0930037 0.439216 1
0.0930037 0.0930037 0.439216 1
0.0930037 0.0930037 0.439216 1
0.0930037 0.0930037 0.439216 1
0.0930037 0.0930037 0.439216 1
0.0930037 0.0930037 0.439216 1
0.0930037 0.0930037 0.439216 1
0.0930037 0.0930037 0.439216 1
0.0930037 0.0930037 0.439216 1
0.0930037 0.0930037 0.439216 1
0.0930037 0.0930037 0.439216 1
0.0930037 0.0930037 0.439216 1
0.0930037 0.0930037 0.439216 1
0.0930037 0.0930037 0.439216 1
0.0930037 0.0930037 0.439216 1
0.0930037 0.0930037 0.439216 1
0.0930037 0.0930037 0.439216 1
0.0930037 0.0930037 0.439216 1
0.0930037 0.0930037 0.439216 1
0.0930037 0.0930037 0.439216 1
0.0930037 0.0930037 0.439216 1
0.0930037 0.0930037 0.439216 1
0.0930037 0.0930037 0.439216 1
0.0930037 0.0930037 0.439216 1
0.0930037 0.0930037 0.439216 1
0.0930037 0.0930037 0.439216 1
0.0930037 0.0930037 0.439216 1
0.0930037 0.0930037 0.439216 1
0.0930037 0.0930037 0.439216 1
0.0930037 0.0930037 0.439216 1
0.0930037 0.0930037 0.439216 1
0.0930037 0.0930037 0.439216 1
0.0930037 0.0930037 0.439216 1
0.0930037 0.0930037 0.439216 1
0.0930037 0.0930037 0.439216 1
0.0930037 0.0930037 0.439216 1
0.0930037 0.0930037 0.439216 1
0.0930037 0.0930037 0.439216 1
0.0930037 0.0930037 0.439216 1
0.0930037 0.0930037 0.439216 1
0.0930037 0.0930037 0.439216 1
0.0930037 0.0930037 0.439216 1
0.0930037 0.0930037 0.439216 1
0.0930037 0.0930037 0.439216 1
0.0930037 0.0930037 0.439216 1
0.0930037 0.0930037 0.439216 1
0.0930037 0.0930037 0.439216 1
0.0930037 0.0930037 0.439216 1
0.0930037 0.0930037 0.439216 1
0.0930037 0.0930037 0.439216 1
0.0930037 0.0930037 0.439216 1
0.0930037 0.0930037 0.439216 1
0.0930037 0.0930037 0.439216 1
0.0930037 0.0930037 0.439216 1
0.0930037 0.0930037 0.439216 1
0.0930037 0.0930037 0.439216 1
0.0930037 0.0930037 0.439216 1
0.0930037 0.0930037 0.439216 1
0.0930037 0.0930037 0.439216 1
0.0930037 0.0930037 0.439216 1
0.0930037 0.0930037 0.439216 1
0.0930037 0.0930037 0.439216 1
0.0930037 0.0930037 0.439216 1
0.0930037 0.0930037 0.439216 1
0.0930037 0.0930037 0.439216 1
0.0930037 0.0930037 0.439216 1
0.0930037 0.0930037 0.439216 1
0.0930037 0.0930037 0.439216 1
0.0930037 0.0930037 0.439216 1
0.0930037 0.0930037 0.439216 1
0.0930037 0.0930037 0.439216 1
0.0930037 0.0930037 0.439216 1
0.0930037 0.0930037 0.439216 1
0.0930037 0.0930037 0.439216 1
0.0930037 0.0930037 0.439216 1
0.0930037 0.0930037 0.439216 1
0.0930037 0.0930037 0.439216 1
0.0930037 0.0930037 0.439216 1
0.0930037 0.0930037 0.439216 1
0.0930037 0.0930037 0.439216 1
0.0930037 0.0930037 0.439216 1
0.0930037 0.0930037 0.439216 1
0.0930037 0.0930037 0.439216 1
0.0930037 0.0930037 0.439216 1
0.0930037 0.0930037 0.439216 1
0.0930037 0.0930037 0.439216 1
0.0930037 0.0930037 0.439216 1
0.0930037 0.0930037 0.439216 1
0.0930037 0.0930037 0.439216 1
0.0930037 0.0930037 0.439216 1
0.0930037 0.0930037 0.439216 1
0.0930037 0.0930037 0.439216 1
0.0930037 0.0930037 0.439216 1
0.0930037 0.0930037 0.439216 1
0.0930037 0.0930037 0.439216 1
0.0930037 0.0930037 0.439216 1
0.0930037 0.0930037 0.439216 1
0.0930037 0.0930037 0.439216 1
0.0930037 0.0930037 0.439216 1
0.0930037 0.0930037 0.439216 1
0.0930037 0.0930037 0.439216 1
0.0930037 0.0930037 0.439216 1
0.0930037 0.0930037 0.439216 1
0.0930037 0.0930037 0.439216 1
0.0930037 0.0930037 0.439216 1
0.0930037 0.0930037 0.439216 1
0.0930037 0.0930037 0.439216 1
0.0930037 0.0930037 0.439216 1
0.0930037 0.0930037 0.439216 1
0.0930037 0.0930037 0.439216 1
0.0930037 0.0930037 0.439216 1
0.0930037 0.0930037 0.439216 1
0.0930037 0.0930037 0.439216 1
0.0930037 0.0930037 0.439216 1
0.0930037 0.0930037 0.439216 1
0.0930037 0.0930037 0.439216 1
0.0930037 0.0930037 0.439216 1
0.0930037 0.0930037 0.439216 1
0.0930037 0.0930037 0.439216 1
0.0930037 0.0930037 0.439216 1
0.0930037 0.0930037 0.439216 1
0.0930037 0.0930037 0.439216 1
0.0930037 0.0930037 0.439216 1
0.0930037 0.0930037 0.439216 1
0.0930037 0.0930037 0.439216 1
0.0930037 0.0930037 0.439216 1
0.0930037 0.0930037 0.439216 1
0.0930037 0.0930037 0.439216 1
0.0930037 0.0930037 0.439216 1
0.0930037 0.0930037 0.439216 1
0.0930037 0.0930037 0.439216 1
0.0930037 0.0930037 0.439216 1
0.0930037 0.0930037 0.439216 1
0.0930037 0.0930037 0.439216 1
0.0930037 0.0930037 0.439216 1
0.0930037 0.0930037 0.439216 1
0.0930037 0.0930037 0.439216 1
0.0930037 0.0930037 0.439216 1
0.0930037 0.0930037 0.439216 1
0.0930037 0.0930037 0.439216 1
0.0930037 0.0930037 0.439216 1
0.0930037 0.0930037 0.439216 1
0.0930037 0.0930037 0.439216 1
0.0930037 0.0930037 0.439216 1
0.0930037 0.0930037 0.439216 1
0.0930037 0.0930037 0.439216 1
0.0930037 0.0930037 0.439216 1
0.0930037 0.0930037 0.439216 1
0.0930037 0.0930037 0.439216 1
0.0930037 0.0930037 0.439216 1
0.0930037 0.0930037 0.439216 1
0.0930037 0.0930037 0.439216 1
0.0930037 0.0930037 0.439216 1
0.0930037 0.0930037 0.439216 1
0.0930037 0.0930037 0.439216 1
0.0930037 0.0930037 0.439216 1
0.0930037 0.0930037 0.439216 1
0.0930037 0.0930037 0.439216 1
0.0930037 0.0930037 0.439216 1
0.0930037 0.0930037 0.439216 1

