# vtk DataFile Version 3.0
Gocad TSurf to VTK
ASCII
DATASET POLYDATA
POINTS 89 float
21548050.000 4556155.000 147.500
21548100.000 4556155.000 140.000
21548075.000 4556087.500 116.250
21548150.000 4556155.000 152.500
21547925.000 4556087.500 146.250
21548100.000 4556222.500 167.500
21548025.000 4556222.500 178.750
21548200.000 4556222.500 185.000
21548200.000 4556290.000 210.000
21548200.000 4556155.000 160.000
21548225.000 4556220.000 213.750
21548175.000 4556087.500 131.250
21548200.000 4556020.000 110.000
21548100.000 4556020.000 85.000
21547900.000 4556020.000 125.000
21548100.000 4555852.500 81.250
21548225.000 4555855.000 121.250
21547875.000 4555847.500 125.000
21548000.000 4555685.000 97.500
21547725.000 4555855.000 260.000
21547713.313 4555936.816 281.039
21547750.000 4555680.000 215.000
21547647.031 4555794.984 287.079
21547775.000 4555505.000 170.000
21547588.781 4555670.328 292.387
21547567.844 4555625.527 294.294
21547503.922 4555488.734 300.120
21547800.000 4555330.000 125.000
21547485.734 4555449.816 301.777
21548125.000 4555517.500 80.000
21548100.000 4555350.000 70.000
21548300.000 4555360.000 125.000
21547900.000 4555177.500 121.250
21548125.000 4555192.500 80.000
21547800.000 4555162.500 163.750
21547800.000 4554995.000 202.500
21547492.125 4555144.027 311.529
21547562.484 4554989.113 314.573
21547485.781 4555157.996 311.255
21547481.109 4555168.430 311.017
21547419.063 4555307.145 307.852
21547566.188 4554980.973 314.733
21547589.703 4554929.184 315.751
21547675.000 4554820.000 301.250
21547800.000 4554827.500 241.250
21547800.000 4554660.000 280.000
21548000.000 4555025.000 117.500
21548100.000 4554872.500 113.750
21548150.000 4555035.000 90.000
21548250.000 4555040.000 110.000
21548325.000 4555207.500 107.500
21548350.000 4555055.000 105.000
21548450.000 4555080.000 180.000
21548375.000 4554902.500 106.250
21548225.000 4554880.000 110.000
21548400.000 4554750.000 100.000
21548200.000 4554720.000 110.000
21548525.000 4554940.000 207.500
21548600.000 4554800.000 235.000
21548575.000 4554945.000 232.500
21548550.000 4555090.000 230.000
21548525.000 4555235.000 227.500
21548500.000 4555380.000 225.000
21548450.000 4555537.500 225.000
21548300.000 4555522.500 150.000
21548400.000 4555695.000 225.000
21548250.000 4555690.000 117.500
21548350.000 4555852.500 225.000
21548300.000 4555847.500 196.250
21548300.000 4556010.000 225.000
21548275.000 4556080.000 221.250
21548200.000 4556087.500 146.250
21548250.000 4556150.000 217.500
21548100.000 4555685.000 77.500
21547673.641 4555851.918 284.654
21547730.344 4556028.484 277.693
21547739.516 4556040.098 277.118
21547787.109 4556095.379 274.293
21547812.469 4556123.527 272.831
21547900.000 4556160.000 222.500
21547843.063 4556158.934 271.020
21547950.000 4556155.000 167.500
21547975.000 4556222.500 188.750
21547900.000 4556226.813 269.031
21548000.000 4556290.000 210.000
21547902.094 4556229.793 268.954
21548100.000 4556290.000 195.000
21547903.859 4556232.313 268.888
21547947.953 4556295.203 267.250

POLYGONS 134 536
3 67 65 66
3 84 82 85
3 69 16 12
3 21 23 24
3 63 64 65
3 61 52 50
3 62 61 50
3 86 5 6
3 33 32 30
3 19 74 20
3 3 7 9
3 69 68 16
3 46 47 44
3 32 46 35
3 88 84 87
3 12 13 11
3 33 30 50
3 72 71 9
3 35 43 42
3 3 1 5
3 0 1 2
3 15 18 17
3 27 38 39
3 71 12 9
3 73 15 16
3 18 73 29
3 29 27 23
3 83 79 80
3 85 82 83
3 1 3 2
3 15 73 18
3 87 84 85
3 79 81 4
3 52 61 60
3 13 12 15
3 27 40 28
3 68 67 66
3 52 51 50
3 74 19 22
3 5 1 0
3 77 4 76
3 49 33 50
3 70 71 72
3 4 14 76
3 35 42 41
3 34 35 41
3 4 77 78
3 86 8 5
3 57 58 55
3 6 5 0
3 31 62 50
3 14 19 20
3 52 53 51
3 14 75 76
3 66 29 73
3 30 29 31
3 29 64 31
3 69 67 68
3 62 31 63
3 27 34 36
3 49 48 33
3 0 4 81
3 3 11 2
3 55 53 57
3 2 4 0
3 80 79 78
3 27 32 34
3 23 17 18
3 36 34 37
3 66 64 29
3 40 27 39
3 22 21 24
3 84 6 82
3 82 81 79
3 23 27 26
3 2 14 4
3 82 79 83
3 84 86 6
3 54 47 49
3 43 44 45
3 8 7 5
3 46 44 35
3 48 46 33
3 35 44 43
3 17 21 19
3 32 35 34
3 10 72 9
3 52 60 57
3 7 3 5
3 13 14 2
3 50 30 31
3 46 48 47
3 49 51 53
3 47 45 44
3 23 25 24
3 27 30 32
3 8 10 7
3 11 13 2
3 71 70 12
3 54 49 53
3 55 54 53
3 27 28 26
3 13 15 17
3 70 69 12
3 11 3 9
3 25 23 26
3 57 53 52
3 54 56 47
3 57 60 59
3 55 56 54
3 6 81 82
3 18 29 23
3 27 36 38
3 23 21 17
3 58 57 59
3 33 46 32
3 51 49 50
3 75 14 20
3 15 12 16
3 63 31 64
3 10 9 7
3 79 4 78
3 17 19 14
3 0 81 6
3 48 49 47
3 14 13 17
3 37 34 41
3 12 11 9
3 66 73 16
3 19 21 22
3 30 27 29
3 16 68 66
3 65 64 66
3 47 56 45

POINT_DATA 89
COLOR_SCALARS GocadColor 4
1 0.447059 0.337255 1
1 0.447059 0.337255 1
1 0.447059 0.337255 1
1 0.447059 0.337255 1
1 0.447059 0.337255 1
1 0.447059 0.337255 1
1 0.447059 0.337255 1
1 0.447059 0.337255 1
1 0.447059 0.337255 1
1 0.447059 0.337255 1
1 0.447059 0.337255 1
1 0.447059 0.337255 1
1 0.447059 0.337255 1
1 0.447059 0.337255 1
1 0.447059 0.337255 1
1 0.447059 0.337255 1
1 0.447059 0.337255 1
1 0.447059 0.337255 1
1 0.447059 0.337255 1
1 0.447059 0.337255 1
1 0.447059 0.337255 1
1 0.447059 0.337255 1
1 0.447059 0.337255 1
1 0.447059 0.337255 1
1 0.447059 0.337255 1
1 0.447059 0.337255 1
1 0.447059 0.337255 1
1 0.447059 0.337255 1
1 0.447059 0.337255 1
1 0.447059 0.337255 1
1 0.447059 0.337255 1
1 0.447059 0.337255 1
1 0.447059 0.337255 1
1 0.447059 0.337255 1
1 0.447059 0.337255 1
1 0.447059 0.337255 1
1 0.447059 0.337255 1
1 0.447059 0.337255 1
1 0.447059 0.337255 1
1 0.447059 0.337255 1
1 0.447059 0.337255 1
1 0.447059 0.337255 1
1 0.447059 0.337255 1
1 0.447059 0.337255 1
1 0.447059 0.337255 1
1 0.447059 0.337255 1
1 0.447059 0.337255 1
1 0.447059 0.337255 1
1 0.447059 0.337255 1
1 0.447059 0.337255 1
1 0.447059 0.337255 1
1 0.447059 0.337255 1
1 0.447059 0.337255 1
1 0.447059 0.337255 1
1 0.447059 0.337255 1
1 0.447059 0.337255 1
1 0.447059 0.337255 1
1 0.447059 0.337255 1
1 0.447059 0.337255 1
1 0.447059 0.337255 1
1 0.447059 0.337255 1
1 0.447059 0.337255 1
1 0.447059 0.337255 1
1 0.447059 0.337255 1
1 0.447059 0.337255 1
1 0.447059 0.337255 1
1 0.447059 0.337255 1
1 0.447059 0.337255 1
1 0.447059 0.337255 1
1 0.447059 0.337255 1
1 0.447059 0.337255 1
1 0.447059 0.337255 1
1 0.447059 0.337255 1
1 0.447059 0.337255 1
1 0.447059 0.337255 1
1 0.447059 0.337255 1
1 0.447059 0.337255 1
1 0.447059 0.337255 1
1 0.447059 0.337255 1
1 0.447059 0.337255 1
1 0.447059 0.337255 1
1 0.447059 0.337255 1
1 0.447059 0.337255 1
1 0.447059 0.337255 1
1 0.447059 0.337255 1
1 0.447059 0.337255 1
1 0.447059 0.337255 1
1 0.447059 0.337255 1
1 0.447059 0.337255 1

