# vtk DataFile Version 3.0
Gocad TSurf to VTK
ASCII
DATASET POLYDATA
POINTS 436 float
21595225.000 4564056.250 -807.500
21595700.000 4563775.000 -720.000
21595600.000 4564323.750 -747.500
21595825.000 4563848.750 -680.000
21595400.000 4564206.250 -782.500
21595325.000 4563553.750 -840.000
21595100.000 4564030.000 -835.000
21595575.000 4563432.500 -750.625
21595700.000 4563560.000 -712.500
21595450.000 4563305.000 -788.750
21595325.000 4563177.500 -826.875
21595200.000 4563480.000 -880.000
21595200.000 4563050.000 -865.000
21595825.000 4563687.500 -674.375
21595950.000 4563815.000 -636.250
21595950.000 4563922.500 -640.000
21595787.500 4564055.000 -663.125
21596075.000 4563942.500 -598.125
21596062.500 4564065.000 -594.375
21596200.000 4564070.000 -560.000
21595925.000 4564060.000 -628.750
21595975.000 4564213.750 -642.500
21595787.500 4564502.500 -691.875
21596200.000 4564302.500 -632.500
21595337.500 4564512.500 -679.375
21595612.500 4564791.250 -670.000
21596075.000 4564660.000 -737.500
21595112.500 4564857.500 -570.625
21595075.000 4564745.000 -603.750
21595187.500 4565082.500 -504.375
21595350.000 4565500.000 -401.250
21595200.000 4565445.000 -317.500
21594950.000 4565740.000 -70.000
21594937.500 4565685.000 -66.250
21594962.500 4565795.000 -73.750
21594975.000 4565850.000 -77.500
21594962.500 4565795.000 -73.750
21594987.500 4565905.000 -81.250
21595000.000 4565960.000 -85.000
21595087.500 4565972.500 -121.250
21595400.000 4565580.000 -397.500
21595187.500 4566360.000 2.500
21595525.000 4566035.000 -302.500
21595262.500 4566520.000 37.500
21595300.000 4566600.000 55.000
21595625.000 4566340.000 -197.500
21596400.000 4566226.250 -523.750
21595312.500 4566672.500 90.000
21595325.000 4566745.000 125.000
21595312.500 4566672.500 90.000
21595350.000 4566890.000 195.000
21595387.500 4567107.500 300.000
21596500.000 4566250.000 -545.000
21596350.000 4565910.000 -642.500
21595400.000 4567180.000 335.000
21595562.500 4567123.750 223.125
21596537.500 4566786.250 -448.125
21595425.000 4567250.000 335.000
21595450.000 4567320.000 335.000
21595475.000 4567390.000 335.000
21595500.000 4567460.000 335.000
21595500.000 4567465.000 335.000
21595525.000 4567536.250 335.000
21595550.000 4567607.500 335.000
21596700.000 4566730.000 -560.000
21595637.500 4567783.750 333.125
21596300.000 4567410.000 -120.000
21595575.000 4567678.750 335.000
21595600.000 4567750.000 335.000
21595637.500 4567792.500 333.125
21595675.000 4567835.000 331.250
21595675.000 4567837.500 331.250
21595712.500 4567881.250 329.375
21595750.000 4567920.000 327.500
21595750.000 4567925.000 327.500
21595787.500 4567968.750 325.625
21595825.000 4568012.500 323.750
21595862.500 4568056.250 321.875
21595900.000 4568100.000 320.000
21596412.500 4567903.750 -30.625
21597200.000 4567095.000 -677.500
21595987.500 4568371.250 320.000
21596000.000 4568410.000 320.000
21597450.000 4567182.500 -833.750
21596187.500 4568320.000 203.125
21597312.500 4567780.000 -498.125
21596025.000 4568447.500 326.875
21596075.000 4568522.500 340.625
21596050.000 4568485.000 333.750
21596150.000 4568635.000 361.250
21596125.000 4568597.500 354.375
21596175.000 4568672.500 368.125
21596200.000 4568710.000 375.000
21597500.000 4567690.000 -615.000
21598100.000 4567380.000 -915.625
21596325.000 4568670.000 316.250
21597312.500 4568127.500 -290.000
21596237.500 4568737.500 380.625
21596252.219 4568749.277 382.833
21596276.703 4568764.176 383.864
21596313.602 4568781.684 385.197
21597125.000 4568585.000 86.875
21596328.891 4568788.313 385.722
21596506.688 4568881.320 392.530
21596598.813 4568905.387 394.985
21596614.219 4568906.055 395.246
21597075.000 4568715.000 208.125
21597462.500 4568360.000 -147.500
21596761.961 4568912.453 397.753
21596846.797 4568916.129 399.192
21597000.000 4568910.000 390.000
21597825.000 4568205.000 -319.375
21596846.406 4568916.785 399.216
21596937.500 4568913.750 393.750
21596845.633 4568918.086 399.262
21596875.000 4568917.500 397.500
21596844.914 4568919.305 399.305
21597225.000 4568821.250 383.125
21598237.500 4568268.750 -21.250
21598137.500 4568117.500 -398.750
21597450.000 4568732.500 376.250
21597675.000 4568643.750 369.375
21597900.000 4568555.000 362.500
21598462.500 4568241.250 121.250
21598350.000 4568147.500 -208.750
21598125.000 4568466.250 355.625
21598350.000 4568377.500 348.750
21598575.000 4568227.500 192.500
21598575.000 4568173.750 63.125
21598575.000 4568288.750 341.875
21598725.000 4568191.250 244.375
21598650.000 4568182.500 153.750
21598800.000 4568200.000 335.000
21599000.000 4568050.000 170.000
21598950.000 4568030.000 77.500
21598750.000 4568122.500 108.750
21599037.500 4567968.750 64.375
21598975.000 4567957.500 -26.250
21599100.000 4567980.000 155.000
21599100.000 4567921.250 45.000
21599275.000 4567860.000 93.125
21599250.000 4567810.000 -23.750
21599300.000 4567910.000 210.000
21599337.500 4567825.000 106.875
21599425.000 4567728.750 242.500
21599450.000 4567657.500 120.000
21599400.000 4567800.000 365.000
21599512.500 4567672.500 296.875
21599625.000 4567593.750 375.000
21599625.000 4567545.000 228.750
21599850.000 4567387.500 385.000
21599475.000 4567586.250 -2.500
21599737.500 4567417.500 160.625
21599375.000 4567740.000 3.750
21599412.500 4567655.000 -99.375
21599225.000 4567760.000 -140.625
21599100.000 4567862.500 -65.000
21599100.000 4567803.750 -175.000
21599050.000 4567905.000 -61.250
21599025.000 4567867.500 -169.375
21598912.500 4567946.250 -116.875
21598800.000 4567970.000 -200.000
21598725.000 4568083.750 -4.375
21599000.000 4567830.000 -277.500
21598725.000 4567912.500 -388.750
21599100.000 4567745.000 -285.000
21599200.000 4567710.000 -257.500
21599100.000 4567686.250 -395.000
21598950.000 4567755.000 -493.750
21599150.000 4567610.000 -491.250
21599525.000 4567443.750 -247.500
21599037.500 4567491.250 -756.250
21599962.500 4567162.500 24.375
21600300.000 4566975.000 405.000
21599562.500 4567315.000 -511.875
21600187.500 4566907.500 -111.875
21600750.000 4566562.500 425.000
21599687.500 4566640.000 -853.750
21600300.000 4566470.000 -425.000
21599100.000 4567210.000 -934.375
21598800.000 4566630.000 -1130.000
21598725.000 4566948.750 -1122.500
21599500.000 4566120.000 -850.000
21599600.000 4566125.000 -827.500
21598912.500 4566378.750 -1062.500
21598712.500 4566315.000 -1068.750
21599150.000 4565980.000 -937.500
21599025.000 4566127.500 -995.000
21599850.000 4565393.750 -508.750
21599062.500 4565911.250 -981.250
21600862.500 4565018.750 3.750
21600600.000 4564720.000 40.000
21601000.000 4564980.000 70.000
21600900.000 4564915.000 62.500
21600975.000 4565165.000 -17.500
21601337.500 4564991.250 195.625
21600475.000 4565865.000 -485.000
21600900.000 4565720.000 -280.000
21600675.000 4566117.500 -242.500
21600525.000 4566382.500 -217.500
21600375.000 4566647.500 -192.500
21601050.000 4565935.000 82.500
21601162.500 4566096.250 354.375
21600975.000 4565827.500 -98.750
21601550.000 4565580.000 425.000
21601637.500 4565437.500 420.000
21601462.500 4565722.500 430.000
21601375.000 4565865.000 435.000
21601287.500 4566007.500 440.000
21601200.000 4566150.000 445.000
21600975.000 4566356.250 435.000
21601725.000 4565295.000 415.000
21601812.500 4565152.500 410.000
21601900.000 4565010.000 405.000
21601787.500 4565006.250 363.125
21601850.000 4564960.000 396.250
21601800.000 4564910.000 387.500
21601750.000 4564860.000 378.750
21601700.000 4564810.000 370.000
21601650.000 4564760.000 361.250
21601600.000 4564710.000 352.500
21601550.000 4564660.000 343.750
21601500.000 4564610.000 335.000
21601425.000 4564597.500 301.875
21600975.000 4564862.500 70.000
21601350.000 4564585.000 268.750
21601275.000 4564572.500 235.625
21600950.000 4564745.000 70.000
21601200.000 4564560.000 202.500
21601125.000 4564547.500 169.375
21600937.500 4564686.250 70.000
21600775.000 4564687.500 81.250
21601050.000 4564535.000 136.250
21600975.000 4564522.500 103.125
21600912.500 4564568.750 70.000
21600900.000 4564510.000 70.000
21600700.000 4564590.000 85.000
21600750.000 4564817.500 51.250
21600475.000 4564640.000 68.750
21600812.500 4564486.250 82.500
21600725.000 4564462.500 95.000
21600575.000 4564522.500 106.250
21600637.500 4564438.750 107.500
21600512.500 4564488.750 116.875
21600450.000 4564570.000 88.750
21600550.000 4564415.000 120.000
21600450.000 4564455.000 127.500
21600400.000 4564520.000 105.000
21600462.500 4564391.250 132.500
21600387.500 4564421.250 138.125
21600350.000 4564470.000 121.250
21600375.000 4564367.500 145.000
21600325.000 4564387.500 148.750
21600300.000 4564420.000 137.500
21600287.500 4564343.750 157.500
21600262.500 4564353.750 159.375
21600200.000 4564320.000 170.000
21600162.500 4564440.000 140.625
21600287.500 4564520.000 111.875
21600087.500 4564326.250 117.500
21600000.000 4564396.250 104.375
21600000.000 4564550.000 30.000
21599975.000 4564332.500 65.000
21599900.000 4564392.500 53.750
21599912.500 4564527.500 -5.000
21599862.500 4564338.750 12.500
21599800.000 4564388.750 3.125
21599750.000 4564345.000 -40.000
21599700.000 4564385.000 -47.500
21599637.500 4564351.250 -92.500
21599600.000 4564381.250 -98.125
21599562.500 4564437.500 -145.000
21599525.000 4564357.500 -145.000
21599500.000 4564377.500 -148.750
21599412.500 4564363.750 -197.500
21599387.500 4564392.500 -215.000
21599475.000 4564415.000 -180.000
21599300.000 4564370.000 -250.000
21599550.000 4564525.000 -222.500
21599200.000 4564635.000 -476.250
21599600.000 4564665.000 -288.750
21599037.500 4564871.250 -716.250
21599200.000 4564371.250 -278.125
21598812.500 4564530.000 -534.375
21598600.000 4564670.000 -662.500
21599100.000 4564372.500 -306.250
21599000.000 4564373.750 -334.375
21598900.000 4564375.000 -362.500
21598687.500 4564470.000 -510.625
21598800.000 4564376.250 -390.625
21598700.000 4564377.500 -418.750
21598600.000 4564378.750 -446.875
21598562.500 4564410.000 -486.875
21598525.000 4564452.500 -521.875
21598500.000 4564380.000 -475.000
21598100.000 4564780.000 -865.000
21598175.000 4564802.500 -863.125
21598337.500 4564386.250 -494.375
[...]
POINT_DATA 436
COLOR_SCALARS GocadColor 4
0.662745 0.662745 0.662745 1
0.662745 0.662745 0.662745 1
0.662745 0.662745 0.662745 1
0.662745 0.662745 0.662745 1
0.662745 0.662745 0.662745 1
0.662745 0.662745 0.662745 1
0.662745 0.662745 0.662745 1
0.662745 0.662745 0.662745 1
0.662745 0.662745 0.662745 1
0.662745 0.662745 0.662745 1
0.662745 0.662745 0.662745 1
0.662745 0.662745 0.662745 1
0.662745 0.662745 0.662745 1
0.662745 0.662745 0.662745 1
0.662745 0.662745 0.662745 1
0.662745 0.662745 0.662745 1
0.662745 0.662745 0.662745 1
0.662745 0.662745 0.662745 1
0.662745 0.662745 0.662745 1
0.662745 0.662745 0.662745 1
0.662745 0.662745 0.662745 1
0.662745 0.662745 0.662745 1
0.662745 0.662745 0.662745 1
0.662745 0.662745 0.662745 1
0.662745 0.662745 0.662745 1
0.662745 0.662745 0.662745 1
0.662745 0.662745 0.662745 1
0.662745 0.662745 0.662745 1
0.662745 0.662745 0.662745 1
0.662745 0.662745 0.662745 1
0.662745 0.662745 0.662745 1
0.662745 0.662745 0.662745 1
0.662745 0.662745 0.662745 1
0.662745 0.662745 0.662745 1
0.662745 0.662745 0.662745 1
0.662745 0.662745 0.662745 1
0.662745 0.662745 0.662745 1
0.662745 0.662745 0.662745 1
0.662745 0.662745 0.662745 1
0.662745 0.662745 0.662745 1
0.662745 0.662745 0.662745 1
0.662745 0.662745 0.662745 1
0.662745 0.662745 0.662745 1
0.662745 0.662745 0.662745 1
0.662745 0.662745 0.662745 1
0.662745 0.662745 0.662745 1
0.662745 0.662745 0.662745 1
0.662745 0.662745 0.662745 1
0.662745 0.662745 0.662745 1
0.662745 0.662745 0.662745 1
0.662745 0.662745 0.662745 1
0.662745 0.662745 0.662745 1
0.662745 0.662745 0.662745 1
0.662745 0.662745 0.662745 1
0.662745 0.662745 0.662745 1
0.662745 0.662745 0.662745 1
0.662745 0.662745 0.662745 1
0.662745 0.662745 0.662745 1
0.662745 0.662745 0.662745 1
0.662745 0.662745 0.662745 1
0.662745 0.662745 0.662745 1
0.662745 0.662745 0.662745 1
0.662745 0.662745 0.662745 1
0.662745 0.662745 0.662745 1
0.662745 0.662745 0.662745 1
0.662745 0.662745 0.662745 1
0.662745 0.662745 0.662745 1
0.662745 0.662745 0.662745 1
0.662745 0.662745 0.662745 1
0.662745 0.662745 0.662745 1
0.662745 0.662745 0.662745 1
0.662745 0.662745 0.662745 1
0.662745 0.662745 0.662745 1
0.662745 0.662745 0.662745 1
0.662745 0.662745 0.662745 1
0.662745 0.662745 0.662745 1
0.662745 0.662745 0.662745 1
0.662745 0.662745 0.662745 1
0.662745 0.662745 0.662745 1
0.662745 0.662745 0.662745 1
0.662745 0.662745 0.662745 1
0.662745 0.662745 0.662745 1
0.662745 0.662745 0.662745 1
0.662745 0.662745 0.662745 1
0.662745 0.662745 0.662745 1
0.662745 0.662745 0.662745 1
0.662745 0.662745 0.662745 1
0.662745 0.662745 0.662745 1
0.662745 0.662745 0.662745 1
0.662745 0.662745 0.662745 1
0.662745 0.662745 0.662745 1
0.662745 0.662745 0.662745 1
0.662745 0.662745 0.662745 1
0.662745 0.662745 0.662745 1
0.662745 0.662745 0.662745 1
0.662745 0.662745 0.662745 1
0.662745 0.662745 0.662745 1
0.662745 0.662745 0.662745 1
0.662745 0.662745 0.662745 1
0.662745 0.662745 0.662745 1
0.662745 0.662745 0.662745 1
0.662745 0.662745 0.662745 1
0.662745 0.662745 0.662745 1
0.662745 0.662745 0.662745 1
0.662745 0.662745 0.662745 1
0.662745 0.662745 0.662745 1
0.662745 0.662745 0.662745 1
0.662745 0.662745 0.662745 1
0.662745 0.662745 0.662745 1
0.662745 0.662745 0.662745 1
0.662745 0.662745 0.662745 1
0.662745 0.662745 0.662745 1
0.662745 0.662745 0.662745 1
0.662745 0.662745 0.662745 1
0.662745 0.662745 0.662745 1
0.662745 0.662745 0.662745 1
0.662745 0.662745 0.662745 1
0.662745 0.662745 0.662745 1
0.662745 0.662745 0.662745 1
0.662745 0.662745 0.662745 1
0.662745 0.662745 0.662745 1
0.662745 0.662745 0.662745 1
0.662745 0.662745 0.662745 1
0.662745 0.662745 0.662745 1
0.662745 0.662745 0.662745 1
0.662745 0.662745 0.662745 1
0.662745 0.662745 0.662745 1
0.662745 0.662745 0.662745 1
0.662745 0.662745 0.662745 1
0.662745 0.662745 0.662745 1
0.662745 0.662745 0.662745 1
0.662745 0.662745 0.662745 1
0.662745 0.662745 0.662745 1
0.662745 0.662745 0.662745 1
0.662745 0.662745 0.662745 1
0.662745 0.662745 0.662745 1
0.662745 0.662745 0.662745 1
0.662745 0.662745 0.662745 1
0.662745 0.662745 0.662745 1
0.662745 0.662745 0.662745 1
0.662745 0.662745 0.662745 1
0.662745 0.662745 0.662745 1
0.662745 0.662745 0.662745 1
0.662745 0.662745 0.662745 1
0.662745 0.662745 0.662745 1
0.662745 0.662745 0.662745 1
0.662745 0.662745 0.662745 1
0.662745 0.662745 0.662745 1
0.662745 0.662745 0.662745 1
0.662745 0.662745 0.662745 1
0.662745 0.662745 0.662745 1
0.662745 0.662745 0.662745 1
0.662745 0.662745 0.662745 1
0.662745 0.662745 0.662745 1
0.662745 0.662745 0.662745 1
0.662745 0.662745 0.662745 1
0.662745 0.662745 0.662745 1
0.662745 0.662745 0.662745 1
0.662745 0.662745 0.662745 1
0.662745 0.662745 0.662745 1
0.662745 0.662745 0.662745 1
0.662745 0.662745 0.662745 1
0.662745 0.662745 0.662745 1
0.662745 0.662745 0.662745 1
0.662745 0.662745 0.662745 1
0.662745 0.662745 0.662745 1
0.662745 0.662745 0.662745 1
0.662745 0.662745 0.662745 1
0.662745 0.662745 0.662745 1
0.662745 0.662745 0.662745 1
0.662745 0.662745 0.662745 1
0.662745 0.662745 0.662745 1
0.662745 0.662745 0.662745 1
0.662745 0.662745 0.662745 1
0.662745 0.662745 0.662745 1
0.662745 0.662745 0.662745 1
0.662745 0.662745 0.662745 1
0.662745 0.662745 0.662745 1
0.662745 0.662745 0.662745 1
0.662745 0.662745 0.662745 1
0.662745 0.662745 0.662745 1
0.662745 0.662745 0.662745 1
0.662745 0.662745 0.662745 1
0.662745 0.662745 0.662745 1
0.662745 0.662745 0.662745 1
0.662745 0.662745 0.662745 1
0.662745 0.662745 0.662745 1
0.662745 0.662745 0.662745 1
0.662745 0.662745 0.662745 1
0.662745 0.662745 0.662745 1
0.662745 0.662745 0.662745 1
0.662745 0.662745 0.662745 1
0.662745 0.662745 0.662745 1
0.662745 0.662745 0.662745 1
0.662745 0.662745 0.662745 1
0.662745 0.662745 0.662745 1
0.662745 0.662745 0.662745 1
0.662745 0.662745 0.662745 1
0.662745 0.662745 0.662745 1
0.662745 0.662745 0.662745 1
0.662745 0.662745 0.662745 1
0.662745 0.662745 0.662745 1
0.662745 0.662745 0.662745 1
0.662745 0.662745 0.662745 1
0.662745 0.662745 0.662745 1
0.662745 0.662745 0.662745 1
0.662745 0.662745 0.662745 1
0.662745 0.662745 0.662745 1
0.662745 0.662745 0.662745 1
0.662745 0.662745 0.662745 1
0.662745 0.662745 0.662745 1
0.662745 0.662745 0.662745 1
0.662745 0.662745 0.662745 1
0.662745 0.662745 0.662745 1
0.662745 0.662745 0.662745 1
0.662745 0.662745 0.662745 1
0.662745 0.662745 0.662745 1
0.662745 0.662745 0.662745 1
0.662745 0.662745 0.662745 1
0.662745 0.662745 0.662745 1
0.662745 0.662745 0.662745 1
0.662745 0.662745 0.662745 1
0.662745 0.662745 0.662745 1
0.662745 0.662745 0.662745 1
0.662745 0.662745 0.662745 1
0.662745 0.662745 0.662745 1
0.662745 0.662745 0.662745 1
0.662745 0.662745 0.662745 1
0.662745 0.662745 0.662745 1
0.662745 0.662745 0.662745 1
0.662745 0.662745 0.662745 1
0.662745 0.662745 0.662745 1
0.662745 0.662745 0.662745 1
0.662745 0.662745 0.662745 1
0.662745 0.662745 0.662745 1
0.662745 0.662745 0.662745 1
0.662745 0.662745 0.662745 1
0.662745 0.662745 0.662745 1
0.662745 0.662745 0.662745 1
0.662745 0.662745 0.662745 1
0.662745 0.662745 0.662745 1
0.662745 0.662745 0.662745 1
0.662745 0.662745 0.662745 1
0.662745 0.662745 0.662745 1
0.662745 0.662745 0.662745 1
0.662745 0.662745 0.662745 1
0.662745 0.662745 0.662745 1
0.662745 0.662745 0.662745 1
0.662745 0.662745 0.662745 1
0.662745 0.662745 0.662745 1
0.662745 0.662745 0.662745 1
0.662745 0.662745 0.662745 1
0.662745 0.662745 0.662745 1
0.662745 0.662745 0.662745 1
0.662745 0.662745 0.662745 1
0.662745 0.662745 0.662745 1
0.662745 0.662745 0.662745 1
0.662745 0.662745 0.662745 1
0.662745 0.662745 0.662745 1
0.662745 0.662745 0.662745 1
0.662745 0.662745 0.662745 1
0.662745 0.662745 0.662745 1
0.662745 0.662745 0.662745 1
0.662745 0.662745 0.662745 1
0.662745 0.662745 0.662745 1
0.662745 0.662745 0.662745 1
0.662745 0.662745 0.662745 1
0.662745 0.662745 0.662745 1
0.662745 0.662745 0.662745 1
0.662745 0.662745 0.662745 1
0.662745 0.662745 0.662745 1
0.662745 0.662745 0.662745 1
0.662745 0.662745 0.662745 1
0.662745 0.662745 0.662745 1
0.662745 0.662745 0.662745 1
0.662745 0.662745 0.662745 1
0.662745 0.662745 0.662745 1
0.662745 0.662745 0.662745 1
0.662745 0.662745 0.662745 1
0.662745 0.662745 0.662745 1
0.662745 0.662745 0.662745 1
0.662745 0.662745 0.662745 1
0.662745 0.662745 0.662745 1
0.662745 0.662745 0.662745 1
0.662745 0.662745 0.662745 1
0.662745 0.662745 0.662745 1
0.662745 0.662745 0.662745 1
0.662745 0.662745 0.662745 1
0.662745 0.662745 0.662745 1
0.662745 0.662745 0.662745 1
0.662745 0.662745 0.662745 1
0.662745 0.662745 0.662745 1
0.662745 0.662745 0.662745 1
0.662745 0.662745 0.662745 1
0.662745 0.662745 0.662745 1
0.662745 0.662745 0.662745 1
0.662745 0.662745 0.662745 1
0.662745 0.662745 0.662745 1
0.662745 0.662745 0.662745 1
0.662745 0.662745 0.662745 1
0.662745 0.662745 0.662745 1
0.662745 0.662745 0.662745 1
0.662745 0.662745 0.662745 1
0.662745 0.662745 0.662745 1
0.662745 0.662745 0.662745 1
0.662745 0.662745 0.662745 1
0.662745 0.662745 0.662745 1
0.662745 0.662745 0.662745 1
0.662745 0.662745 0.662745 1
0.662745 0.662745 0.662745 1
0.662745 0.662745 0.662745 1
0.662745 0.662745 0.662745 1
0.662745 0.662745 0.662745 1
0.662745 0.662745 0.662745 1
0.662745 0.662745 0.662745 1
0.662745 0.662745 0.662745 1
0.662745 0.662745 0.662745 1
0.662745 0.662745 0.662745 1
0.662745 0.662745 0.662745 1
0.662745 0.662745 0.662745 1
0.662745 0.662745 0.662745 1
0.662745 0.662745 0.662745 1
0.662745 0.662745 0.662745 1
0.662745 0.662745 0.662745 1
0.662745 0.662745 0.662745 1
0.662745 0.662745 0.662745 1
0.662745 0.662745 0.662745 1
0.662745 0.662745 0.662745 1
0.662745 0.662745 0.662745 1
0.662745 0.662745 0.662745 1
0.662745 0.662745 0.662745 1
0.662745 0.662745 0.662745 1
0.662745 0.662745 0.662745 1
0.662745 0.662745 0.662745 1
0.662745 0.662745 0.662745 1
0.662745 0.662745 0.662745 1
0.662745 0.662745 0.662745 1
0.662745 0.662745 0.662745 1
0.662745 0.662745 0.662745 1
0.662745 0.662745 0.662745 1
0.662745 0.662745 0.662745 1
0.662745 0.662745 0.662745 1
0.662745 0.662745 0.662745 1
0.662745 0.662745 0.662745 1
0.662745 0.662745 0.662745 1
0.662745 0.662745 0.662745 1
0.662745 0.662745 0.662745 1
0.662745 0.662745 0.662745 1
0.662745 0.662745 0.662745 1
0.662745 0.662745 0.662745 1
0.662745 0.662745 0.662745 1
0.662745 0.662745 0.662745 1
0.662745 0.662745 0.662745 1
0.662745 0.662745 0.662745 1
0.662745 0.662745 0.662745 1
0.662745 0.662745 0.662745 1
0.662745 0.662745 0.662745 1
0.662745 0.662745 0.662745 1
0.662745 0.662745 0.662745 1
0.662745 0.662745 0.662745 1
0.662745 0.662745 0.662745 1
0.662745 0.662745 0.662745 1
0.662745 0.662745 0.662745 1
0.662745 0.662745 0.662745 1
0.662745 0.662745 0.662745 1
0.662745 0.662745 0.662745 1
0.662745 0.662745 0.662745 1
0.662745 0.662745 0.662745 1
0.662745 0.662745 0.662745 1
0.662745 0.662745 0.662745 1
0.662745 0.662745 0.662745 1
0.662745 0.662745 0.662745 1
0.662745 0.662745 0.662745 1
0.662745 0.662745 0.662745 1
0.662745 0.662745 0.662745 1
0.662745 0.662745 0.662745 1
0.662745 0.662745 0.662745 1
0.662745 0.662745 0.662745 1
0.662745 0.662745 0.662745 1
0.662745 0.662745 0.662745 1
0.662745 0.662745 0.662745 1
0.662745 0.662745 0.662745 1
0.662745 0.662745 0.662745 1
0.662745 0.662745 0.662745 1
0.662745 0.662745 0.662745 1
0.662745 0.662745 0.662745 1
0.662745 0.662745 0.662745 1
0.662745 0.662745 0.662745 1
0.662745 0.662745 0.662745 1
0.662745 0.662745 0.662745 1
0.662745 0.662745 0.662745 1
0.662745 0.662745 0.662745 1
0.662745 0.662745 0.662745 1
0.662745 0.662745 0.662745 1
0.662745 0.662745 0.662745 1
0.662745 0.662745 0.662745 1
0.662745 0.662745 0.662745 1
0.662745 0.662745 0.662745 1
0.662745 0.662745 0.662745 1
0.662745 0.662745 0.662745 1
0.662745 0.662745 0.662745 1
0.662745 0.662745 0.662745 1
0.662745 0.662745 0.662745 1
0.662745 0.662745 0.662745 1
0.662745 0.662745 0.662745 1
0.662745 0.662745 0.662745 1
0.662745 0.662745 0.662745 1
0.662745 0.662745 0.662745 1
0.662745 0.662745 0.662745 1
0.662745 0.662745 0.662745 1
0.662745 0.662745 0.662745 1
0.662745 0.662745 0.662745 1
0.662745 0.662745 0.662745 1
0.662745 0.662745 0.662745 1
0.662745 0.662745 0.662745 1
0.662745 0.662745 0.662745 1
0.662745 0.662745 0.662745 1
0.662745 0.662745 0.662745 1
0.662745 0.662745 0.662745 1
0.662745 0.662745 0.662745 1
0.662745 0.662745 0.662745 1
0.662745 0.662745 0.662745 1
0.662745 0.662745 0.662745 1
0.662745 0.662745 0.662745 1
0.662745 0.662745 0.662745 1
0.662745 0.662745 0.662745 1
0.662745 0.662745 0.662745 1
0.662745 0.662745 0.662745 1
0.662745 0.662745 0.662745 1
0.662745 0.662745 0.662745 1
0.662745 0.662745 0.662745 1
0.662745 0.662745 0.662745 1
0.662745 0.662745 0.662745 1
0.662745 0.662745 0.662745 1
0.662745 0.662745 0.662745 1
0.662745 0.662745 0.662745 1

