# vtk DataFile Version 3.0
Gocad TSurf to VTK
ASCII
DATASET POLYDATA
POINTS 165 float
21575425.000 4578547.500 172.500
21575425.000 4578547.500 172.500
21575304.047 4578573.422 184.595
21575304.047 4578573.422 184.595
21575600.000 4578510.000 155.000
21575500.000 4578597.500 116.250
21575400.000 4578685.000 77.500
21575575.000 4578635.000 98.750
21575654.750 4578538.531 100.061
21575700.000 4578560.000 70.000
21575650.000 4578672.500 35.000
21575550.000 4578760.000 42.500
21575725.000 4578702.500 12.500
21575800.000 4578600.000 40.000
21575825.000 4578760.000 12.500
21575750.000 4578880.000 -15.000
21575900.000 4578640.000 40.000
21575900.000 4578827.500 110.000
21575991.172 4578738.609 164.703
21575996.000 4578752.766 164.808
21575995.656 4578726.094 164.356
21575975.000 4578872.500 137.500
21575950.000 4579015.000 105.000
21576019.797 4578897.141 166.617
21576021.219 4578905.797 166.725
21576048.109 4579068.961 168.770
21575925.000 4579157.500 72.500
21576048.453 4579071.078 168.797
21576064.281 4579167.117 170.000
21576075.000 4579240.000 170.000
21576100.000 4579410.000 170.000
21575975.000 4579555.000 106.250
21575750.000 4579435.000 -11.250
21576100.000 4579632.500 183.750
21575850.000 4579700.000 42.500
21576100.000 4579720.953 189.216
21575750.000 4579645.000 -22.500
21575600.000 4579570.000 -62.500
21575725.000 4579845.000 -21.250
21576095.078 4579854.867 194.632
21576087.203 4580069.563 203.314
21576095.188 4579852.016 194.516
21576087.000 4580075.227 203.543
21575600.000 4579990.000 -85.000
21576086.625 4580085.125 203.944
21575375.000 4579660.000 -141.250
21575275.000 4579975.000 -155.000
21575100.000 4579710.000 -155.000
21575400.000 4580185.000 -105.000
21575600.000 4580157.500 -36.250
21575250.000 4580110.000 -145.000
21575150.000 4580060.000 -160.000
21575225.000 4580245.000 -135.000
21575025.000 4580137.500 -155.000
21575400.000 4580510.000 -30.000
21575150.000 4580440.000 -111.250
21575725.000 4580570.000 138.750
21575650.000 4580917.500 153.750
21575975.000 4580390.000 196.250
21575917.531 4580536.563 199.842
21576003.922 4580369.180 202.902
21575990.188 4580397.594 202.702
21576059.328 4580288.406 203.752
21576065.891 4580278.852 203.852
21575963.953 4580451.828 202.322
21575953.188 4580474.102 202.166
21575859.906 4580637.453 196.088
21575795.891 4580749.586 191.917
21575786.031 4580774.672 191.157
21575786.031 4580774.672 191.157
21575650.000 4580917.500 153.750
21575600.000 4580970.000 140.000
21575000.000 4580620.000 -70.000
21575100.000 4580592.500 -60.000
21575100.000 4580915.000 42.500
21574900.000 4580667.500 -73.750
21575500.000 4581027.500 143.750
21575300.000 4581142.500 151.250
21575500.000 4581027.500 143.750
21575400.000 4581085.000 147.500
21575200.000 4581200.000 155.000
21574700.000 4581085.000 35.000
21575100.000 4581240.000 155.000
21574600.000 4580810.000 -85.000
21574550.000 4580980.000 -27.500
21574600.000 4580695.000 -108.750
21574400.000 4580670.000 -140.000
21574600.000 4580350.000 -180.000
21574550.000 4580430.000 -170.000
21574700.000 4580332.500 -173.750
21575000.000 4580450.000 -112.500
21574650.000 4580205.000 -160.000
21575000.000 4580365.000 -133.750
21574250.000 4580037.500 -203.750
21574675.000 4580132.500 -150.000
21574100.000 4580030.000 -225.000
21574175.000 4580190.000 -203.750
21574125.000 4579970.000 -176.250
21574050.000 4579932.500 -176.250
21574150.000 4579910.000 -127.500
21574200.000 4579790.000 -30.000
21574725.000 4579632.500 -101.250
21573775.000 4579590.000 48.750
21573850.000 4579720.000 -42.500
21573700.000 4579460.000 140.000
21574200.000 4579455.000 47.500
21573825.000 4579375.000 136.250
21573950.000 4579290.000 132.500
21573950.000 4579285.000 132.500
21574900.000 4579580.000 -125.000
21574900.000 4579120.000 50.000
21574800.000 4579820.000 -132.500
21575075.000 4579852.500 -155.000
21575050.000 4579437.500 -111.250
21575200.000 4579535.000 -133.750
21575050.000 4579220.000 -62.500
21575200.000 4579295.000 -97.500
21575125.000 4579040.000 -31.250
21574739.734 4578782.352 191.482
21574735.453 4578793.273 191.035
21574744.406 4578776.070 191.830
21575200.000 4578860.000 0.000
21575400.000 4579185.000 -91.250
21574849.797 4578722.055 197.520
21574940.969 4578687.313 194.274
21575085.953 4578643.320 189.308
21575099.891 4578639.094 188.830
21575300.000 4578772.500 38.750
21575600.000 4578917.500 -42.500
21575197.016 4578609.633 185.504
21575251.641 4578591.148 185.040
21575256.672 4578589.445 184.997
21575304.047 4578573.422 184.595
21575600.000 4579120.000 -70.000
21575525.000 4579300.000 -93.750
21575450.000 4579480.000 -117.500
21575350.000 4579415.000 -112.500
21574627.391 4578855.883 185.021
21574488.250 4578930.586 179.380
21574075.000 4579197.500 128.750
21574571.344 4578872.969 183.157
21575100.000 4580500.000 -97.500
21575050.000 4580560.000 -83.750
21573925.000 4579850.000 -133.750
21574000.000 4579980.000 -225.000
21574100.000 4580152.500 -203.750
21574200.000 4580325.000 -182.500
21574250.000 4580350.000 -182.500
21574300.000 4580497.500 -161.250
21574325.000 4580510.000 -161.250
21574450.000 4580590.000 -150.000
21574400.000 4580777.500 -101.250
21574400.000 4580885.000 -62.500
21574400.000 4580992.500 -23.750
21574450.000 4581027.500 -10.000
21574525.000 4581065.000 1.250
21574400.000 4581100.000 15.000
21574500.000 4581150.000 30.000
21574750.000 4581222.500 95.000
21574789.625 4581331.469 142.548
21574767.703 4581337.398 141.545
21574879.156 4581306.445 146.659
21574985.625 4581276.695 151.549
21574992.125 4581274.875 151.847
21575060.781 4581255.688 155.000

POLYGONS 248 992
3 107 108 106
3 66 56 67
3 113 109 47
3 98 144 95
3 147 96 146
3 156 154 153
3 120 118 117
3 150 149 86
3 3 0 2
3 71 72 74
3 38 43 42
3 11 127 128
3 45 135 114
3 147 149 88
3 55 73 54
3 61 58 64
3 105 101 107
3 111 53 112
3 47 45 114
3 159 157 160
3 143 98 99
3 122 133 128
3 89 90 92
3 12 10 11
3 100 99 94
3 16 14 17
3 26 22 15
3 32 31 26
3 86 83 85
3 133 122 134
3 55 141 73
3 149 150 88
3 134 122 136
3 27 26 28
3 50 51 53
3 99 93 94
3 43 49 63
3 46 48 43
3 74 81 80
3 38 34 36
3 146 96 145
3 45 47 46
3 152 153 84
3 51 46 112
3 126 125 121
3 103 143 99
3 39 38 40
3 79 78 76
3 43 38 45
3 26 29 28
3 116 113 114
3 131 130 127
3 49 62 63
3 38 37 45
3 85 150 86
3 155 158 81
3 93 97 95
3 98 97 99
3 9 8 7
3 34 38 39
3 4 5 7
3 72 87 85
3 16 13 14
3 49 48 54
3 70 57 71
3 127 121 128
3 105 107 106
3 48 50 52
3 145 95 144
3 98 143 144
3 142 141 90
3 156 155 154
3 109 111 112
3 149 148 86
3 24 23 22
3 128 15 11
3 130 129 127
3 19 18 17
3 5 6 7
3 93 95 87
3 58 59 65
3 109 112 47
3 151 152 84
3 89 87 72
3 76 71 74
3 97 98 95
3 93 99 97
3 135 37 134
3 15 128 133
3 135 136 114
3 81 82 80
3 121 117 122
3 83 86 151
3 73 142 72
3 119 137 110
3 81 158 162
3 133 26 15
3 58 49 56
3 131 127 6
3 92 53 94
3 6 11 7
3 158 159 161
3 102 100 104
3 15 12 11
3 163 81 162
3 134 32 133
3 47 112 46
3 115 116 117
3 138 140 139
3 75 85 83
3 72 142 90
3 56 54 57
3 25 24 22
3 23 19 21
3 11 10 7
3 101 100 94
3 48 49 43
3 141 55 90
3 56 49 54
3 73 72 57
3 41 34 39
3 110 115 117
3 10 9 7
3 22 17 15
3 37 135 45
3 55 54 52
3 158 157 159
3 74 83 81
3 74 75 83
3 49 58 60
3 76 74 77
3 87 88 85
3 0 1 2
3 93 91 94
3 34 35 33
3 9 10 12
3 117 118 110
3 58 65 64
3 72 71 57
3 59 56 66
3 89 72 90
3 148 147 146
3 100 102 99
3 43 45 46
3 17 22 21
3 81 83 84
3 74 80 77
3 96 95 145
3 101 109 107
3 18 16 17
3 14 12 15
3 48 52 54
3 109 110 107
3 53 111 94
3 48 46 50
3 104 100 105
3 87 89 91
3 57 70 69
3 137 138 110
3 36 37 38
3 164 81 163
3 116 114 136
3 110 109 113
3 19 17 21
3 117 116 122
3 121 122 128
3 0 6 5
3 129 126 127
3 154 155 84
3 93 87 91
3 31 34 33
3 81 164 82
3 90 55 92
3 58 56 59
3 139 108 107
3 52 92 55
3 31 30 26
3 4 0 5
3 133 32 26
3 30 29 26
3 147 88 96
3 132 131 6
3 138 107 110
3 56 68 67
3 124 123 121
3 149 147 148
3 54 73 57
3 134 136 135
3 6 127 11
3 113 116 115
3 111 109 101
3 105 100 101
3 138 139 107
3 52 53 92
3 118 119 110
3 44 43 63
3 72 75 74
3 53 51 112
3 78 71 76
3 73 141 142
3 75 72 85
3 88 87 96
3 25 22 26
3 125 124 121
3 56 57 68
3 36 34 32
3 115 110 113
3 153 154 84
3 13 12 14
3 17 14 15
3 62 49 60
3 4 1 0
3 3 132 0
3 121 120 117
3 113 47 114
3 8 4 7
3 58 61 60
3 27 25 26
3 155 81 84
3 106 104 105
3 23 21 22
3 32 37 36
3 96 87 95
3 132 6 0
3 111 101 94
3 52 50 53
3 102 103 99
3 79 76 77
3 57 69 68
3 122 116 136
3 35 34 41
3 40 38 42
3 158 161 162
3 83 151 84
3 157 158 155
3 13 9 12
3 18 20 16
3 37 32 134
3 34 31 32
3 91 89 92
3 43 44 42
3 88 150 85
3 126 121 127
3 123 120 121
3 156 157 155
3 46 51 50
3 31 33 30
3 94 91 92

POINT_DATA 165
COLOR_SCALARS GocadColor 4
0.854902 0.666667 0 1
0.854902 0.666667 0 1
0.854902 0.666667 0 1
0.854902 0.666667 0 1
0.854902 0.666667 0 1
0.854902 0.666667 0 1
0.854902 0.666667 0 1
0.854902 0.666667 0 1
0.854902 0.666667 0 1
0.854902 0.666667 0 1
0.854902 0.666667 0 1
0.854902 0.666667 0 1
0.854902 0.666667 0 1
0.854902 0.666667 0 1
0.854902 0.666667 0 1
0.854902 0.666667 0 1
0.854902 0.666667 0 1
0.854902 0.666667 0 1
0.854902 0.666667 0 1
0.854902 0.666667 0 1
0.854902 0.666667 0 1
0.854902 0.666667 0 1
0.854902 0.666667 0 1
0.854902 0.666667 0 1
0.854902 0.666667 0 1
0.854902 0.666667 0 1
0.854902 0.666667 0 1
0.854902 0.666667 0 1
0.854902 0.666667 0 1
0.854902 0.666667 0 1
0.854902 0.666667 0 1
0.854902 0.666667 0 1
0.854902 0.666667 0 1
0.854902 0.666667 0 1
0.854902 0.666667 0 1
0.854902 0.666667 0 1
0.854902 0.666667 0 1
0.854902 0.666667 0 1
0.854902 0.666667 0 1
0.854902 0.666667 0 1
0.854902 0.666667 0 1
0.854902 0.666667 0 1
0.854902 0.666667 0 1
0.854902 0.666667 0 1
0.854902 0.666667 0 1
0.854902 0.666667 0 1
0.854902 0.666667 0 1
0.854902 0.666667 0 1
0.854902 0.666667 0 1
0.854902 0.666667 0 1
0.854902 0.666667 0 1
0.854902 0.666667 0 1
0.854902 0.666667 0 1
0.854902 0.666667 0 1
0.854902 0.666667 0 1
0.854902 0.666667 0 1
0.854902 0.666667 0 1
0.854902 0.666667 0 1
0.854902 0.666667 0 1
0.854902 0.666667 0 1
0.854902 0.666667 0 1
0.854902 0.666667 0 1
0.854902 0.666667 0 1
0.854902 0.666667 0 1
0.854902 0.666667 0 1
0.854902 0.666667 0 1
0.854902 0.666667 0 1
0.854902 0.666667 0 1
0.854902 0.666667 0 1
0.854902 0.666667 0 1
0.854902 0.666667 0 1
0.854902 0.666667 0 1
0.854902 0.666667 0 1
0.854902 0.666667 0 1
0.854902 0.666667 0 1
0.854902 0.666667 0 1
0.854902 0.666667 0 1
0.854902 0.666667 0 1
0.854902 0.666667 0 1
0.854902 0.666667 0 1
0.854902 0.666667 0 1
0.854902 0.666667 0 1
0.854902 0.666667 0 1
0.854902 0.666667 0 1
0.854902 0.666667 0 1
0.854902 0.666667 0 1
0.854902 0.666667 0 1
0.854902 0.666667 0 1
0.854902 0.666667 0 1
0.854902 0.666667 0 1
0.854902 0.666667 0 1
0.854902 0.666667 0 1
0.854902 0.666667 0 1
0.854902 0.666667 0 1
0.854902 0.666667 0 1
0.854902 0.666667 0 1
0.854902 0.666667 0 1
0.854902 0.666667 0 1
0.854902 0.666667 0 1
0.854902 0.666667 0 1
0.854902 0.666667 0 1
0.854902 0.666667 0 1
0.854902 0.666667 0 1
0.854902 0.666667 0 1
0.854902 0.666667 0 1
0.854902 0.666667 0 1
0.854902 0.666667 0 1
0.854902 0.666667 0 1
0.854902 0.666667 0 1
0.854902 0.666667 0 1
0.854902 0.666667 0 1
0.854902 0.666667 0 1
0.854902 0.666667 0 1
0.854902 0.666667 0 1
0.854902 0.666667 0 1
0.854902 0.666667 0 1
0.854902 0.666667 0 1
0.854902 0.666667 0 1
0.854902 0.666667 0 1
0.854902 0.666667 0 1
0.854902 0.666667 0 1
0.854902 0.666667 0 1
0.854902 0.666667 0 1
0.854902 0.666667 0 1
0.854902 0.666667 0 1
0.854902 0.666667 0 1
0.854902 0.666667 0 1
0.854902 0.666667 0 1
0.854902 0.666667 0 1
0.854902 0.666667 0 1
0.854902 0.666667 0 1
0.854902 0.666667 0 1
0.854902 0.666667 0 1
0.854902 0.666667 0 1
0.854902 0.666667 0 1
0.854902 0.666667 0 1
0.854902 0.666667 0 1
0.854902 0.666667 0 1
0.854902 0.666667 0 1
0.854902 0.666667 0 1
0.854902 0.666667 0 1
0.854902 0.666667 0 1
0.854902 0.666667 0 1
0.854902 0.666667 0 1
0.854902 0.666667 0 1
0.854902 0.666667 0 1
0.854902 0.666667 0 1
0.854902 0.666667 0 1
0.854902 0.666667 0 1
0.854902 0.666667 0 1
0.854902 0.666667 0 1
0.854902 0.666667 0 1
0.854902 0.666667 0 1
0.854902 0.666667 0 1
0.854902 0.666667 0 1
0.854902 0.666667 0 1
0.854902 0.666667 0 1
0.854902 0.666667 0 1
0.854902 0.666667 0 1
0.854902 0.666667 0 1
0.854902 0.666667 0 1
0.854902 0.666667 0 1
0.854902 0.666667 0 1
0.854902 0.666667 0 1
0.854902 0.666667 0 1

