# vtk DataFile Version 3.0
Gocad TSurf to VTK
ASCII
DATASET POLYDATA
POINTS 190 float
21602975.000 4582197.500 -402.500
21603000.000 4582080.000 -500.000
21603425.000 4581952.500 -706.250
21604400.000 4581250.000 -1285.000
21604275.000 4581697.500 -1118.750
21601143.969 4583088.602 547.193
21601205.344 4583097.547 551.326
21601140.891 4583087.836 546.972
21602700.000 4582097.500 -343.750
21601140.609 4583084.305 546.809
21602850.000 4581880.000 -390.000
21603200.000 4581675.000 -640.000
21602700.000 4581542.500 -301.250
21601625.000 4582390.000 236.250
21603175.000 4581007.500 -656.250
21602700.000 4581405.000 -322.500
21603650.000 4581265.000 -906.250
21603600.000 4580895.000 -912.500
21604150.000 4581255.000 -1158.750
21604175.000 4580980.000 -1243.750
21604325.000 4581160.000 -1271.250
21604250.000 4581070.000 -1257.500
21604100.000 4580890.000 -1230.000
21604025.000 4580797.500 -1183.750
21603950.000 4580705.000 -1137.500
21603875.000 4580612.500 -1091.250
21603800.000 4580520.000 -1045.000
21603400.000 4580635.000 -802.500
21603775.000 4580477.500 -1031.250
21602800.000 4580830.000 -446.250
21602700.000 4580800.000 -390.000
21602175.000 4581325.000 -120.000
21602525.000 4581635.000 -217.500
21601406.281 4581379.555 385.866
21601405.664 4581381.133 386.035
21601407.398 4581376.703 385.562
21601550.000 4581410.000 285.000
21601379.164 4581419.586 388.958
21601250.000 4581665.000 382.500
21601950.000 4581662.500 8.750
21601325.000 4581522.500 386.250
21601325.000 4581522.500 386.250
21601379.164 4581419.586 388.958
21601175.000 4581807.500 378.750
21601100.000 4581950.000 375.000
21601275.000 4582000.000 312.500
21601625.000 4582100.000 187.500
21601050.000 4582260.000 410.000
21601025.000 4582415.000 427.500
21601000.000 4582570.000 445.000
21601850.000 4581987.500 86.250
21601025.000 4582705.000 476.250
21601450.000 4582630.000 347.500
21601050.000 4582840.000 507.500
21601069.188 4582943.609 531.484
21601081.195 4582969.297 535.590
21601095.891 4583000.734 540.615
21601138.445 4583057.273 545.560
21603700.000 4580350.000 -990.000
21603725.000 4580400.000 -973.750
21603700.000 4580360.000 -950.000
21603750.000 4580435.000 -1017.500
21603750.000 4580440.000 -997.500
21603775.000 4580480.000 -1021.250
21601375.000 4583077.500 521.250
21602200.000 4582980.000 375.000
21601386.789 4583170.664 565.472
21601429.672 4583187.938 568.815
21601625.953 4583267.023 584.117
21602179.555 4583247.828 617.270
21602363.406 4583241.453 628.280
21602525.000 4583112.500 486.250
21602775.000 4582737.500 88.750
21602365.555 4583241.742 628.424
21602437.742 4583243.383 624.986
21603875.000 4582257.500 -548.750
21603225.000 4582452.500 -256.250
21602473.328 4583248.172 623.668
21604325.000 4582012.500 -852.500
21604450.000 4581865.000 -1010.000
21602476.977 4583248.516 623.518
21602498.750 4583255.117 623.058
21603500.000 4582800.000 -5.000
21604575.000 4582070.000 -781.250
21602592.352 4583285.594 621.279
21602685.422 4583315.898 619.510
21602705.828 4583322.547 619.122
21602787.727 4583338.656 609.335
21602889.047 4583358.586 597.228
21604700.000 4582040.000 -810.000
21602916.398 4583354.234 593.413
21602937.656 4583357.406 590.816
21603275.000 4583155.000 360.000
21604225.000 4582585.000 -290.000
21603052.570 4583475.297 582.430
21603104.977 4583529.055 578.605
21603108.555 4583532.734 578.344
21603108.906 4583533.094 578.318
21604700.000 4582300.000 -615.000
21605000.000 4581972.500 -903.750
21603110.156 4583533.844 578.197
21603475.000 4583312.500 333.750
21604600.000 4582630.000 -420.000
21603111.016 4583534.148 578.102
21603407.148 4583620.102 533.916
21603497.102 4583646.211 520.494
21603534.250 4583656.992 514.950
21603547.906 4583661.578 512.902
21604250.000 4583245.000 42.500
21604750.000 4582795.000 -408.750
21603649.219 4583695.586 497.708
21603748.000 4583728.750 482.892
21603844.344 4583761.086 468.443
21603938.336 4583792.641 454.346
21604800.000 4582850.000 -405.000
21603952.227 4583801.391 452.193
21603962.297 4583804.516 450.687
21604700.000 4583147.500 -192.500
21605100.000 4582692.500 -540.000
21604081.516 4583841.578 432.856
21604147.078 4583861.953 423.051
21604195.242 4583883.992 420.095
21604305.391 4583934.391 413.336
21604418.156 4583985.984 406.417
21605200.000 4582640.000 -585.000
21604430.570 4583986.500 405.642
21604438.750 4583986.922 405.132
21605225.000 4582910.000 -403.750
21605275.000 4582730.000 -515.000
21604535.445 4583991.844 399.100
21604625.000 4583960.000 368.750
21605275.000 4583450.000 -41.250
21604615.953 4583993.461 394.071
21604683.016 4583994.805 389.883
21604739.727 4583995.945 386.341
21605075.000 4583800.000 216.250
21605020.516 4584001.586 368.804
21605116.078 4584003.508 362.835
21605160.461 4583998.266 355.549
21605300.000 4583720.000 140.000
21605226.914 4583990.414 344.639
21605500.000 4583000.000 -305.000
21605425.000 4582910.000 -375.000
21605600.000 4582310.000 -740.000
21605500.000 4582392.500 -701.250
21605550.000 4582310.000 -757.500
21605500.000 4582310.000 -775.000
21605450.000 4582310.000 -792.500
21605300.000 4582557.500 -623.750
21605400.000 4582310.000 -810.000
21605225.000 4582540.000 -668.750
21605375.000 4582292.500 -837.500
21605250.000 4582440.000 -752.500
21605350.000 4582275.000 -865.000
21605325.000 4582257.500 -892.500
21605300.000 4582240.000 -920.000
21605125.000 4582337.500 -795.000
21605300.000 4582195.000 -913.750
21605300.000 4582150.000 -907.500
21604775.000 4582532.500 -545.000
21605300.000 4582105.000 -901.250
21605300.000 4582060.000 -895.000
21605150.000 4582120.000 -825.000
21605250.000 4582032.500 -905.000
21605200.000 4582005.000 -915.000
21605150.000 4581977.500 -925.000
21605100.000 4581950.000 -935.000
21605075.000 4581917.500 -958.750
21605050.000 4581885.000 -982.500
21605025.000 4581852.500 -1006.250
21605000.000 4581820.000 -1030.000
21604750.000 4581945.000 -921.250
21604975.000 4581780.000 -1086.250
21604800.000 4581850.000 -1032.500
21604950.000 4581740.000 -1142.500
21604925.000 4581700.000 -1198.750
21604900.000 4581660.000 -1255.000
21604850.000 4581637.500 -1272.500
21604800.000 4581615.000 -1290.000
21604750.000 4581592.500 -1307.500
21604700.000 4581570.000 -1325.000
21604625.000 4581490.000 -1315.000
21604550.000 4581410.000 -1305.000
21604475.000 4581330.000 -1295.000
21601406.281 4581379.555 385.866
21601405.664 4581381.133 386.035
21601400.000 4581380.000 390.000
21601379.164 4581419.586 388.958
21601407.398 4581376.703 385.562
21601379.164 4581419.586 388.958

POLYGONS 252 1008
3 155 154 152
3 159 161 160
3 26 25 17
3 50 32 13
3 107 102 108
3 183 182 4
3 59 58 60
3 175 174 173
3 43 38 39
3 158 156 159
3 4 76 0
3 95 92 93
3 152 150 118
3 28 61 63
3 74 73 71
3 46 50 13
3 122 121 117
3 77 74 75
3 28 26 27
3 152 118 114
3 105 104 101
3 69 68 65
3 34 36 37
3 50 46 39
3 78 83 82
3 12 32 15
3 98 97 93
3 2 4 0
3 118 124 117
3 173 171 83
3 18 21 20
3 156 109 159
3 114 155 152
3 30 15 31
3 75 79 78
3 4 181 180
3 59 27 58
3 57 56 52
3 89 170 99
3 155 156 157
3 88 87 82
3 68 67 65
3 36 40 37
3 81 78 82
3 169 168 99
3 105 101 102
3 45 39 46
3 87 86 82
3 8 13 12
3 100 97 98
3 50 39 32
3 127 124 128
3 143 141 142
3 54 53 52
3 5 7 1
3 8 10 1
3 156 158 157
3 56 55 52
3 123 117 124
3 130 127 131
3 177 78 79
3 27 61 28
3 45 44 39
3 96 95 93
3 139 135 131
3 18 1 11
3 76 180 79
3 64 0 65
3 37 40 42
3 91 90 89
3 177 79 178
3 134 133 130
3 77 75 78
3 141 131 142
3 149 124 150
3 29 30 27
3 110 107 108
3 89 83 171
3 176 78 177
3 161 162 163
3 88 82 89
3 154 153 152
3 137 136 135
3 76 71 72
3 104 103 101
3 125 123 124
3 101 98 102
3 138 135 139
3 151 150 152
3 120 119 117
3 1 10 11
3 13 32 12
3 132 129 130
3 19 21 18
3 83 78 173
3 99 167 166
3 3 18 20
3 138 139 140
3 148 147 144
3 160 158 159
3 151 152 153
3 115 113 114
3 7 9 8
3 27 59 61
3 128 148 144
3 67 64 65
3 32 39 31
3 102 109 108
3 39 38 31
3 99 166 98
3 149 150 151
3 161 102 162
3 81 80 78
3 141 139 131
3 162 164 163
3 30 31 33
3 92 89 93
3 52 13 8
3 98 162 102
3 124 149 148
3 0 72 65
3 170 169 99
3 73 70 71
3 116 115 114
3 121 120 117
3 113 112 108
3 176 175 173
3 11 16 18
3 79 75 76
3 127 128 142
3 51 13 52
3 67 66 64
3 70 65 71
3 143 144 145
3 16 22 19
3 107 106 102
3 76 72 0
3 62 61 59
3 12 15 14
3 23 22 17
3 15 29 14
3 138 137 135
3 3 1 18
3 103 100 101
3 47 44 45
3 10 8 12
3 0 1 2
3 40 41 42
3 126 124 127
3 86 85 82
3 47 48 44
3 63 61 62
3 165 162 98
3 11 10 12
3 78 176 173
3 95 94 92
3 116 114 117
3 144 146 145
3 66 6 64
3 99 168 167
3 90 88 89
3 31 36 34
3 47 45 46
3 114 109 156
3 14 27 17
3 16 19 18
3 36 38 40
3 38 36 31
3 51 49 13
3 179 178 79
3 172 171 173
3 2 1 3
3 16 17 22
3 102 159 109
3 124 118 150
3 9 57 8
3 166 165 98
3 180 179 79
3 80 77 78
3 48 47 46
3 11 12 14
3 128 124 148
3 70 69 65
3 128 144 142
3 76 4 180
3 119 116 117
3 53 51 52
3 112 111 108
3 97 96 93
3 129 126 127
3 16 11 14
3 1 7 8
3 106 105 102
3 111 110 108
3 91 89 92
3 83 89 82
3 17 27 26
3 57 52 8
3 25 24 17
3 44 43 39
3 123 122 117
3 23 17 24
3 170 89 171
3 155 114 156
3 5 1 0
3 30 58 27
3 6 0 64
3 49 46 13
3 118 117 114
3 17 16 14
3 74 71 75
3 172 173 174
3 100 98 101
3 126 125 124
3 2 183 4
3 49 48 46
3 102 161 159
3 75 71 76
3 14 29 27
3 6 5 0
3 40 38 41
3 84 81 82
3 2 3 183
3 143 142 144
3 147 146 144
3 131 135 130
3 55 54 52
3 134 130 135
3 30 29 15
3 99 98 93
3 136 134 135
3 129 127 130
3 4 182 181
3 94 91 92
3 113 108 114
3 165 164 162
3 35 30 33
3 26 28 63
3 33 31 34
3 93 89 99
3 170 171 172
3 85 84 82
3 127 142 131
3 148 149 147
3 133 132 130
3 109 114 108
3 72 71 65
3 32 31 15
3 187 189 186
3 184 186 188
3 185 187 186
3 184 185 186

POINT_DATA 190
COLOR_SCALARS GocadColor 4
0 1 0.48333 1
0 1 0.48333 1
0 1 0.48333 1
0 1 0.48333 1
0 1 0.48333 1
0 1 0.48333 1
0 1 0.48333 1
0 1 0.48333 1
0 1 0.48333 1
0 1 0.48333 1
0 1 0.48333 1
0 1 0.48333 1
0 1 0.48333 1
0 1 0.48333 1
0 1 0.48333 1
0 1 0.48333 1
0 1 0.48333 1
0 1 0.48333 1
0 1 0.48333 1
0 1 0.48333 1
0 1 0.48333 1
0 1 0.48333 1
0 1 0.48333 1
0 1 0.48333 1
0 1 0.48333 1
0 1 0.48333 1
0 1 0.48333 1
0 1 0.48333 1
0 1 0.48333 1
0 1 0.48333 1
0 1 0.48333 1
0 1 0.48333 1
0 1 0.48333 1
0 1 0.48333 1
0 1 0.48333 1
0 1 0.48333 1
0 1 0.48333 1
0 1 0.48333 1
0 1 0.48333 1
0 1 0.48333 1
0 1 0.48333 1
0 1 0.48333 1
0 1 0.48333 1
0 1 0.48333 1
0 1 0.48333 1
0 1 0.48333 1
0 1 0.48333 1
0 1 0.48333 1
0 1 0.48333 1
0 1 0.48333 1
0 1 0.48333 1
0 1 0.48333 1
0 1 0.48333 1
0 1 0.48333 1
0 1 0.48333 1
0 1 0.48333 1
0 1 0.48333 1
0 1 0.48333 1
0 1 0.48333 1
0 1 0.48333 1
0 1 0.48333 1
0 1 0.48333 1
0 1 0.48333 1
0 1 0.48333 1
0 1 0.48333 1
0 1 0.48333 1
0 1 0.48333 1
0 1 0.48333 1
0 1 0.48333 1
0 1 0.48333 1
0 1 0.48333 1
0 1 0.48333 1
0 1 0.48333 1
0 1 0.48333 1
0 1 0.48333 1
0 1 0.48333 1
0 1 0.48333 1
0 1 0.48333 1
0 1 0.48333 1
0 1 0.48333 1
0 1 0.48333 1
0 1 0.48333 1
0 1 0.48333 1
0 1 0.48333 1
0 1 0.48333 1
0 1 0.48333 1
0 1 0.48333 1
0 1 0.48333 1
0 1 0.48333 1
0 1 0.48333 1
0 1 0.48333 1
0 1 0.48333 1
0 1 0.48333 1
0 1 0.48333 1
0 1 0.48333 1
0 1 0.48333 1
0 1 0.48333 1
0 1 0.48333 1
0 1 0.48333 1
0 1 0.48333 1
0 1 0.48333 1
0 1 0.48333 1
0 1 0.48333 1
0 1 0.48333 1
0 1 0.48333 1
0 1 0.48333 1
0 1 0.48333 1
0 1 0.48333 1
0 1 0.48333 1
0 1 0.48333 1
0 1 0.48333 1
0 1 0.48333 1
0 1 0.48333 1
0 1 0.48333 1
0 1 0.48333 1
0 1 0.48333 1
0 1 0.48333 1
0 1 0.48333 1
0 1 0.48333 1
0 1 0.48333 1
0 1 0.48333 1
0 1 0.48333 1
0 1 0.48333 1
0 1 0.48333 1
0 1 0.48333 1
0 1 0.48333 1
0 1 0.48333 1
0 1 0.48333 1
0 1 0.48333 1
0 1 0.48333 1
0 1 0.48333 1
0 1 0.48333 1
0 1 0.48333 1
0 1 0.48333 1
0 1 0.48333 1
0 1 0.48333 1
0 1 0.48333 1
0 1 0.48333 1
0 1 0.48333 1
0 1 0.48333 1
0 1 0.48333 1
0 1 0.48333 1
0 1 0.48333 1
0 1 0.48333 1
0 1 0.48333 1
0 1 0.48333 1
0 1 0.48333 1
0 1 0.48333 1
0 1 0.48333 1
0 1 0.48333 1
0 1 0.48333 1
0 1 0.48333 1
0 1 0.48333 1
0 1 0.48333 1
0 1 0.48333 1
0 1 0.48333 1
0 1 0.48333 1
0 1 0.48333 1
0 1 0.48333 1
0 1 0.48333 1
0 1 0.48333 1
0 1 0.48333 1
0 1 0.48333 1
0 1 0.48333 1
0 1 0.48333 1
0 1 0.48333 1
0 1 0.48333 1
0 1 0.48333 1
0 1 0.48333 1
0 1 0.48333 1
0 1 0.48333 1
0 1 0.48333 1
0 1 0.48333 1
0 1 0.48333 1
0 1 0.48333 1
0 1 0.48333 1
0 1 0.48333 1
0 1 0.48333 1
0 1 0.48333 1
0 1 0.48333 1
0 1 0.48333 1
0 1 0.48333 1
0 1 0.48333 1
0 1 0.48333 1
0 1 0.48333 1
0 1 0.48333 1
0 1 0.48333 1
0 1 0.48333 1
0 1 0.48333 1
0 1 0.48333 1

