# vtk DataFile Version 3.0
Gocad TSurf to VTK
ASCII
DATASET POLYDATA
POINTS 188 float
21542675.000 4559762.500 -1203.750
21542500.000 4560250.000 -1240.000
21543100.000 4560020.000 -1335.000
21542750.000 4560317.500 -1218.750
21542975.000 4559650.000 -1237.500
21542225.000 4559935.000 -1132.500
21542225.000 4559945.000 -1136.250
21542250.000 4559505.000 -1072.500
21542450.000 4559430.000 -1095.000
21541950.000 4559620.000 -1025.000
21541950.000 4559640.000 -1032.500
21541825.000 4559247.500 -941.250
21541925.000 4559210.000 -952.500
21541675.000 4559305.000 -917.500
21541675.000 4559335.000 -928.750
21541400.000 4558990.000 -810.000
21541400.000 4559030.000 -825.000
21542075.000 4559160.000 -948.750
21542200.000 4559110.000 -913.750
21542750.000 4559330.000 -1087.500
21542300.000 4559080.000 -893.750
21543000.000 4559230.000 -1017.500
21543200.000 4559170.000 -977.500
21543800.000 4559350.000 -1121.250
21543425.000 4559500.000 -1226.250
21544100.000 4559260.000 -1061.250
21544600.000 4559470.000 -1225.000
21544100.000 4559670.000 -1365.000
21545000.000 4559350.000 -1145.000
21544700.000 4559585.000 -1215.000
21544575.000 4559630.000 -1232.500
21545000.000 4559495.000 -1155.000
21544800.000 4559700.000 -1205.000
21545125.000 4559445.000 -1131.250
21545000.000 4559640.000 -1165.000
21545250.000 4559540.000 -1117.500
21545000.000 4559785.000 -1175.000
21544900.000 4559815.000 -1195.000
21545375.000 4559635.000 -1103.750
21545000.000 4559930.000 -1185.000
21545500.000 4559730.000 -1090.000
21545350.000 4560447.500 -1218.750
21544975.000 4560582.500 -1271.250
21545725.000 4560297.500 -1147.500
21545700.000 4560965.000 -1252.500
21545800.000 4560247.500 -1168.750
21546100.000 4560765.000 -1247.500
21545900.000 4560190.000 -1168.750
21546025.000 4560105.000 -1162.500
21546300.000 4560650.000 -1247.500
21546100.000 4560040.000 -1137.500
21546550.000 4560480.000 -1235.000
21546700.000 4560350.000 -1185.000
21547075.000 4560855.000 -1307.500
21546700.000 4561110.000 -1326.250
21547300.000 4560660.000 -1232.500
21547600.000 4561230.000 -1380.000
21547100.000 4561570.000 -1405.000
21547900.000 4560970.000 -1280.000
21548200.000 4561455.000 -1252.500
21547975.000 4561650.000 -1327.500
21548250.000 4561420.000 -1248.750
21548600.000 4561870.000 -1217.500
21548350.000 4561377.500 -1238.750
21548400.000 4561350.000 -1221.250
21548800.000 4561785.000 -1197.500
21548900.000 4561730.000 -1162.500
21549250.000 4562192.500 -1156.250
21548950.000 4562320.000 -1186.250
21549400.000 4562110.000 -1103.750
21549700.000 4562600.000 -1115.000
21549300.000 4562770.000 -1155.000
21549900.000 4562490.000 -1045.000
21550400.000 4563075.000 -1091.250
21550100.000 4563202.500 -1121.250
21550550.000 4562992.500 -1038.750
21551100.000 4563550.000 -1067.500
21550550.000 4562947.500 -1025.000
21551200.000 4563405.000 -1005.000
21551200.000 4563495.000 -1032.500
21551850.000 4563862.500 -985.000
21551850.000 4563997.500 -1026.250
21551800.000 4564025.000 -1043.750
21552500.000 4564320.000 -965.000
21552500.000 4564500.000 -1020.000
21552750.000 4564665.000 -906.250
21552750.000 4564800.000 -947.500
21552500.000 4564880.000 -1030.000
21553000.000 4565010.000 -847.500
21553000.000 4565100.000 -875.000
21552750.000 4565085.000 -955.000
21553250.000 4565355.000 -788.750
21553250.000 4565400.000 -802.500
21553000.000 4565290.000 -880.000
21553500.000 4565700.000 -730.000
21553250.000 4565495.000 -805.000
21553250.000 4565557.500 -795.000
21553000.000 4565415.000 -860.000
21553250.000 4565587.500 -802.500
21553000.000 4565435.000 -865.000
21553500.000 4565740.000 -740.000
21553250.000 4565617.500 -802.500
21553000.000 4565455.000 -865.000
21553500.000 4565780.000 -740.000
21552750.000 4565292.500 -927.500
21552750.000 4565282.500 -927.500
21552500.000 4565130.000 -990.000
21552750.000 4565272.500 -925.000
21551650.000 4564575.000 -1035.000
21551650.000 4564387.500 -1065.000
21551575.000 4564610.000 -1021.250
21550800.000 4564020.000 -1080.000
21550650.000 4564090.000 -1052.500
21550800.000 4563895.000 -1100.000
21549950.000 4563465.000 -1125.000
21551650.000 4564102.500 -1057.500
21550800.000 4563705.000 -1095.000
21551700.000 4564067.500 -1053.750
21550900.000 4563635.000 -1087.500
21549950.000 4563307.500 -1132.500
21549950.000 4563402.500 -1135.000
21549100.000 4562910.000 -1170.000
21548800.000 4562425.000 -1197.500
21548725.000 4562490.000 -1222.500
21548800.000 4563050.000 -1115.000
21548350.000 4562070.000 -1275.000
21548500.000 4562595.000 -1181.250
21548500.000 4561940.000 -1225.000
21548200.000 4562140.000 -1247.500
21547900.000 4561685.000 -1313.750
21547950.000 4562310.000 -1260.000
21547525.000 4561940.000 -1332.500
21547750.000 4562425.000 -1260.000
21547225.000 4562112.500 -1332.500
21548275.000 4562737.500 -1187.500
21548200.000 4562787.500 -1166.250
21548375.000 4562680.000 -1187.500
21547600.000 4562525.000 -1217.500
21547000.000 4562262.500 -1268.750
21546700.000 4561800.000 -1405.000
21546400.000 4562000.000 -1320.000
21546400.000 4561282.500 -1326.250
21546175.000 4561432.500 -1262.500
21545950.000 4560865.000 -1205.000
21546050.000 4561482.500 -1286.250
21545925.000 4561527.500 -1303.750
21545825.000 4561565.000 -1306.250
21545725.000 4561605.000 -1290.000
21545450.000 4561055.000 -1287.500
21545250.000 4561130.000 -1292.500
21544675.000 4560695.000 -1278.750
21544500.000 4560110.000 -1255.000
21545050.000 4561210.000 -1260.000
21544375.000 4560815.000 -1230.000
21545675.000 4561630.000 -1278.750
21544950.000 4561260.000 -1237.500
21544225.000 4560890.000 -1196.250
21543700.000 4560420.000 -1200.000
21543500.000 4560520.000 -1155.000
21544100.000 4560260.000 -1265.000
21543950.000 4560162.500 -1293.750
21544400.000 4560000.000 -1282.500
21544525.000 4559950.000 -1247.500
21544100.000 4560112.500 -1290.000
21544300.000 4559890.000 -1310.000
21544100.000 4559965.000 -1315.000
21544200.000 4559780.000 -1337.500
21544550.000 4559790.000 -1240.000
21544100.000 4559817.500 -1340.000
21543800.000 4560065.000 -1322.500
21543650.000 4559967.500 -1351.250
21543500.000 4559870.000 -1380.000
21543600.000 4560145.000 -1290.000
21543650.000 4560282.500 -1245.000
21543550.000 4560007.500 -1335.000
21543500.000 4560032.500 -1323.750
21543200.000 4560145.000 -1290.000
21543500.000 4560195.000 -1267.500
21543300.000 4560270.000 -1245.000
21543500.000 4560357.500 -1211.250
21543400.000 4560395.000 -1200.000
21543250.000 4560452.500 -1176.250
21543000.000 4560385.000 -1197.500
21549725.000 4563570.000 -1083.750
21541400.000 4559050.000 -825.000
21541675.000 4559350.000 -928.750
21541950.000 4559650.000 -1032.500
21542225.000 4559950.000 -1136.250

POLYGONS 322 1288
3 87 106 90
3 146 148 149
3 29 26 30
3 113 120 114
3 118 116 115
3 7 9 5
3 84 83 81
3 94 91 92
3 17 8 19
3 14 184 185
3 17 12 8
3 124 121 123
3 23 24 27
3 51 49 54
3 47 40 45
3 163 165 160
3 30 167 32
3 6 187 1
3 78 77 75
3 148 42 149
3 160 157 159
3 47 45 46
3 64 63 65
3 18 15 17
3 92 93 95
3 182 176 3
3 50 48 51
3 88 89 91
3 133 57 139
3 74 119 116
3 103 100 101
3 12 11 7
3 44 43 41
3 122 123 121
3 21 19 24
3 175 177 172
3 132 131 133
3 100 98 101
3 136 128 130
3 136 130 134
3 164 165 163
3 48 49 51
3 65 62 68
3 59 56 60
3 128 129 130
3 50 51 52
3 133 139 138
3 160 173 157
3 95 97 96
3 74 71 119
3 153 157 156
3 177 179 173
3 73 74 118
3 170 174 172
3 125 126 123
3 13 15 16
3 53 57 56
3 75 72 73
3 10 14 185
3 121 71 122
3 49 46 141
3 18 19 21
3 120 121 114
3 130 129 131
3 63 58 61
3 84 117 115
3 137 133 138
3 77 72 75
3 105 106 104
3 21 24 23
3 82 76 117
3 22 21 23
3 181 178 182
3 146 149 147
3 169 173 160
3 111 113 114
3 19 8 4
3 141 142 139
3 132 133 137
3 72 70 73
3 67 71 70
3 114 121 183
3 143 43 44
3 3 2 1
3 8 0 4
3 30 27 166
3 5 10 6
3 179 158 157
3 126 124 123
3 47 46 49
3 170 172 169
3 17 15 12
3 168 27 170
3 55 56 58
3 35 34 36
3 85 86 88
3 148 41 42
3 60 56 129
3 48 47 49
3 175 171 2
3 114 183 112
3 6 186 187
3 125 128 126
3 29 28 26
3 62 127 68
3 127 59 60
3 84 115 109
3 52 53 55
3 129 56 131
3 162 161 151
3 4 2 171
3 150 159 153
3 89 90 93
3 36 37 39
3 160 165 169
3 54 141 139
3 142 143 144
3 118 74 116
3 138 139 140
3 170 171 174
3 12 15 11
3 117 118 115
3 175 2 176
3 23 27 26
3 75 73 76
3 59 127 62
3 177 175 176
3 76 73 118
3 164 163 161
3 33 28 31
3 97 107 105
3 66 65 67
3 134 130 132
3 94 95 96
3 88 86 89
3 106 87 108
3 70 71 74
3 165 168 169
3 20 18 21
3 131 57 133
3 111 112 110
3 161 163 159
3 84 82 117
3 5 9 10
3 143 142 141
3 96 97 99
3 179 178 180
3 108 109 111
3 94 96 98
3 162 167 164
3 162 164 161
3 174 175 172
3 167 166 164
3 173 179 157
3 60 129 128
3 149 42 150
3 79 76 82
3 91 89 92
3 142 144 140
3 48 40 47
3 121 124 183
3 43 40 41
3 31 28 29
3 64 58 63
3 147 152 154
3 73 70 74
3 179 177 178
3 13 16 14
3 179 180 158
3 94 92 95
3 169 168 170
3 86 87 90
3 70 72 69
3 84 81 82
3 93 107 97
3 33 34 35
3 85 84 86
3 34 31 32
3 109 113 111
3 90 107 93
3 38 39 40
3 99 97 105
3 98 99 102
3 43 143 46
3 156 157 158
3 101 98 102
3 134 135 124
3 99 105 104
3 145 44 148
3 32 31 29
3 167 162 37
3 145 148 146
3 166 27 168
3 67 68 71
3 122 125 123
3 0 5 1
3 153 159 157
3 11 13 9
3 86 90 89
3 42 151 150
3 163 160 159
3 126 136 124
3 49 141 54
3 25 26 28
3 9 13 14
3 135 132 137
3 87 84 109
3 167 30 166
3 177 176 178
3 51 54 53
3 61 59 62
3 169 172 173
3 127 122 68
3 119 121 120
3 93 97 95
3 144 44 145
3 162 151 39
3 176 2 3
3 122 127 125
3 80 78 79
3 41 40 39
3 71 121 119
3 131 56 57
3 14 16 184
3 147 154 140
3 76 118 117
3 161 159 151
3 8 7 0
3 41 39 42
3 61 58 59
3 11 15 13
3 36 34 37
3 33 31 34
3 155 153 156
3 5 6 1
3 22 23 25
3 90 106 107
3 54 139 57
3 116 119 120
3 152 153 155
3 18 17 19
3 45 43 46
3 106 108 110
3 32 167 37
3 111 114 112
3 4 0 2
3 149 150 152
3 146 147 140
3 98 96 99
3 79 78 75
3 50 40 48
3 20 21 22
3 29 30 32
3 130 131 132
3 107 106 105
3 20 15 18
3 63 62 65
3 127 60 125
3 113 116 120
3 66 67 69
3 150 151 159
3 174 171 175
3 25 23 26
3 172 177 173
3 12 7 8
3 59 58 56
3 115 116 113
3 152 150 153
3 84 87 86
3 7 5 0
3 9 14 10
3 45 40 43
3 142 140 139
3 19 4 24
3 24 4 171
3 11 9 7
3 126 128 136
3 52 51 53
3 144 145 140
3 44 41 148
3 109 115 113
3 30 26 27
3 144 143 44
3 35 36 38
3 24 171 27
3 37 34 32
3 147 149 152
3 81 80 79
3 145 146 140
3 0 1 2
3 100 94 98
3 87 109 108
3 63 61 62
3 180 178 181
3 69 67 70
3 178 176 182
3 89 93 92
3 38 36 39
3 46 143 141
3 10 185 186
3 180 181 158
3 79 75 76
3 154 152 155
3 65 68 67
3 102 99 104
3 108 111 110
3 83 80 81
3 55 53 56
3 42 39 151
3 81 79 82
3 83 84 85
3 166 168 165
3 60 128 125
3 166 165 164
3 37 162 39
3 68 122 71
3 6 10 186
3 134 132 135
3 64 65 66
3 170 27 171
3 53 54 57
3 136 134 124

POINT_DATA 188
COLOR_SCALARS GocadColor 4
0.819608 0.698116 0.549615 1
0.819608 0.698116 0.549615 1
0.819608 0.698116 0.549615 1
0.819608 0.698116 0.549615 1
0.819608 0.698116 0.549615 1
0.819608 0.698116 0.549615 1
0.819608 0.698116 0.549615 1
0.819608 0.698116 0.549615 1
0.819608 0.698116 0.549615 1
0.819608 0.698116 0.549615 1
0.819608 0.698116 0.549615 1
0.819608 0.698116 0.549615 1
0.819608 0.698116 0.549615 1
0.819608 0.698116 0.549615 1
0.819608 0.698116 0.549615 1
0.819608 0.698116 0.549615 1
0.819608 0.698116 0.549615 1
0.819608 0.698116 0.549615 1
0.819608 0.698116 0.549615 1
0.819608 0.698116 0.549615 1
0.819608 0.698116 0.549615 1
0.819608 0.698116 0.549615 1
0.819608 0.698116 0.549615 1
0.819608 0.698116 0.549615 1
0.819608 0.698116 0.549615 1
0.819608 0.698116 0.549615 1
0.819608 0.698116 0.549615 1
0.819608 0.698116 0.549615 1
0.819608 0.698116 0.549615 1
0.819608 0.698116 0.549615 1
0.819608 0.698116 0.549615 1
0.819608 0.698116 0.549615 1
0.819608 0.698116 0.549615 1
0.819608 0.698116 0.549615 1
0.819608 0.698116 0.549615 1
0.819608 0.698116 0.549615 1
0.819608 0.698116 0.549615 1
0.819608 0.698116 0.549615 1
0.819608 0.698116 0.549615 1
0.819608 0.698116 0.549615 1
0.819608 0.698116 0.549615 1
0.819608 0.698116 0.549615 1
0.819608 0.698116 0.549615 1
0.819608 0.698116 0.549615 1
0.819608 0.698116 0.549615 1
0.819608 0.698116 0.549615 1
0.819608 0.698116 0.549615 1
0.819608 0.698116 0.549615 1
0.819608 0.698116 0.549615 1
0.819608 0.698116 0.549615 1
0.819608 0.698116 0.549615 1
0.819608 0.698116 0.549615 1
0.819608 0.698116 0.549615 1
0.819608 0.698116 0.549615 1
0.819608 0.698116 0.549615 1
0.819608 0.698116 0.549615 1
0.819608 0.698116 0.549615 1
0.819608 0.698116 0.549615 1
0.819608 0.698116 0.549615 1
0.819608 0.698116 0.549615 1
0.819608 0.698116 0.549615 1
0.819608 0.698116 0.549615 1
0.819608 0.698116 0.549615 1
0.819608 0.698116 0.549615 1
0.819608 0.698116 0.549615 1
0.819608 0.698116 0.549615 1
0.819608 0.698116 0.549615 1
0.819608 0.698116 0.549615 1
0.819608 0.698116 0.549615 1
0.819608 0.698116 0.549615 1
0.819608 0.698116 0.549615 1
0.819608 0.698116 0.549615 1
0.819608 0.698116 0.549615 1
0.819608 0.698116 0.549615 1
0.819608 0.698116 0.549615 1
0.819608 0.698116 0.549615 1
0.819608 0.698116 0.549615 1
0.819608 0.698116 0.549615 1
0.819608 0.698116 0.549615 1
0.819608 0.698116 0.549615 1
0.819608 0.698116 0.549615 1
0.819608 0.698116 0.549615 1
0.819608 0.698116 0.549615 1
0.819608 0.698116 0.549615 1
0.819608 0.698116 0.549615 1
0.819608 0.698116 0.549615 1
0.819608 0.698116 0.549615 1
0.819608 0.698116 0.549615 1
0.819608 0.698116 0.549615 1
0.819608 0.698116 0.549615 1
0.819608 0.698116 0.549615 1
0.819608 0.698116 0.549615 1
0.819608 0.698116 0.549615 1
0.819608 0.698116 0.549615 1
0.819608 0.698116 0.549615 1
0.819608 0.698116 0.549615 1
0.819608 0.698116 0.549615 1
0.819608 0.698116 0.549615 1
0.819608 0.698116 0.549615 1
0.819608 0.698116 0.549615 1
0.819608 0.698116 0.549615 1
0.819608 0.698116 0.549615 1
0.819608 0.698116 0.549615 1
0.819608 0.698116 0.549615 1
0.819608 0.698116 0.549615 1
0.819608 0.698116 0.549615 1
0.819608 0.698116 0.549615 1
0.819608 0.698116 0.549615 1
0.819608 0.698116 0.549615 1
0.819608 0.698116 0.549615 1
0.819608 0.698116 0.549615 1
0.819608 0.698116 0.549615 1
0.819608 0.698116 0.549615 1
0.819608 0.698116 0.549615 1
0.819608 0.698116 0.549615 1
0.819608 0.698116 0.549615 1
0.819608 0.698116 0.549615 1
0.819608 0.698116 0.549615 1
0.819608 0.698116 0.549615 1
0.819608 0.698116 0.549615 1
0.819608 0.698116 0.549615 1
0.819608 0.698116 0.549615 1
0.819608 0.698116 0.549615 1
0.819608 0.698116 0.549615 1
0.819608 0.698116 0.549615 1
0.819608 0.698116 0.549615 1
0.819608 0.698116 0.549615 1
0.819608 0.698116 0.549615 1
0.819608 0.698116 0.549615 1
0.819608 0.698116 0.549615 1
0.819608 0.698116 0.549615 1
0.819608 0.698116 0.549615 1
0.819608 0.698116 0.549615 1
0.819608 0.698116 0.549615 1
0.819608 0.698116 0.549615 1
0.819608 0.698116 0.549615 1
0.819608 0.698116 0.549615 1
0.819608 0.698116 0.549615 1
0.819608 0.698116 0.549615 1
0.819608 0.698116 0.549615 1
0.819608 0.698116 0.549615 1
0.819608 0.698116 0.549615 1
0.819608 0.698116 0.549615 1
0.819608 0.698116 0.549615 1
0.819608 0.698116 0.549615 1
0.819608 0.698116 0.549615 1
0.819608 0.698116 0.549615 1
0.819608 0.698116 0.549615 1
0.819608 0.698116 0.549615 1
0.819608 0.698116 0.549615 1
0.819608 0.698116 0.549615 1
0.819608 0.698116 0.549615 1
0.819608 0.698116 0.549615 1
0.819608 0.698116 0.549615 1
0.819608 0.698116 0.549615 1
0.819608 0.698116 0.549615 1
0.819608 0.698116 0.549615 1
0.819608 0.698116 0.549615 1
0.819608 0.698116 0.549615 1
0.819608 0.698116 0.549615 1
0.819608 0.698116 0.549615 1
0.819608 0.698116 0.549615 1
0.819608 0.698116 0.549615 1
0.819608 0.698116 0.549615 1
0.819608 0.698116 0.549615 1
0.819608 0.698116 0.549615 1
0.819608 0.698116 0.549615 1
0.819608 0.698116 0.549615 1
0.819608 0.698116 0.549615 1
0.819608 0.698116 0.549615 1
0.819608 0.698116 0.549615 1
0.819608 0.698116 0.549615 1
0.819608 0.698116 0.549615 1
0.819608 0.698116 0.549615 1
0.819608 0.698116 0.549615 1
0.819608 0.698116 0.549615 1
0.819608 0.698116 0.549615 1
0.819608 0.698116 0.549615 1
0.819608 0.698116 0.549615 1
0.819608 0.698116 0.549615 1
0.819608 0.698116 0.549615 1
0.819608 0.698116 0.549615 1
0.819608 0.698116 0.549615 1
0.819608 0.698116 0.549615 1
0.819608 0.698116 0.549615 1
0.819608 0.698116 0.549615 1
0.819608 0.698116 0.549615 1
0.819608 0.698116 0.549615 1

