# vtk DataFile Version 3.0
Gocad TSurf to VTK
ASCII
DATASET POLYDATA
POINTS 177 float
21572750.000 4565970.000 -1050.000
21572600.000 4566010.000 -717.500
21572550.000 4565905.000 -861.250
21572575.000 4566092.500 -507.500
21572500.000 4565800.000 -1005.000
21573000.000 4566140.000 -1095.000
21573250.000 4566310.000 -1140.000
21572700.000 4566220.000 -430.000
21573500.000 4566480.000 -1185.000
21573275.000 4566500.000 -815.000
21572675.000 4566305.000 -248.750
21573675.000 4566627.500 -861.250
21573900.000 4566705.000 -902.500
21573850.000 4566775.000 -537.500
21573050.000 4566520.000 -445.000
21574200.000 4567070.000 110.000
21574300.000 4566930.000 -620.000
21572600.000 4566560.000 295.000
21572625.000 4566475.000 113.750
21572900.000 4566770.000 305.000
21573900.000 4567320.000 278.750
21574375.000 4567252.500 121.250
21573200.000 4566980.000 315.000
21573500.000 4567190.000 325.000
21573800.000 4567400.000 335.000
21574900.000 4567770.000 155.000
21575000.000 4567575.000 50.000
21574000.000 4567540.000 356.250
21574825.000 4567817.500 221.250
21575725.000 4568280.000 -32.500
21574200.000 4567680.000 377.500
21574400.000 4567820.000 398.750
21574497.828 4567888.480 409.144
21574613.547 4567951.422 408.034
21574631.750 4567969.031 407.227
21576000.000 4568460.000 -95.000
21576050.000 4568245.000 -91.250
21574635.188 4567972.566 407.057
21574972.219 4568185.523 401.389
21575025.000 4568217.500 398.750
21576150.000 4568725.000 120.000
21576200.000 4568530.000 -155.000
21575450.000 4568475.000 377.500
21575875.000 4568732.500 356.250
21576275.000 4568875.000 212.500
21576250.000 4568760.000 90.000
21576300.000 4568990.000 335.000
21576925.000 4569325.000 27.500
21576800.000 4569055.000 -130.000
21576475.000 4569167.500 342.500
21576950.000 4569450.000 140.000
21576475.000 4569167.500 342.500
21576650.000 4569345.000 350.000
21576825.000 4569522.500 357.500
21576975.000 4569575.000 252.500
21577000.000 4569700.000 365.000
21577150.000 4569540.000 -62.500
21577400.000 4569880.000 -40.000
21577025.000 4569370.000 -73.750
21577325.000 4569482.500 -355.000
21577300.000 4569350.000 -460.000
21577800.000 4569770.000 -830.000
21578000.000 4569715.000 -1225.000
21577650.000 4570130.000 -242.500
21578250.000 4570335.000 -900.000
21577350.000 4570010.000 202.500
21577306.688 4570122.613 412.568
21577075.000 4569810.000 385.000
21577150.000 4569920.000 405.000
21577219.750 4570022.297 423.599
21577226.250 4570029.801 422.774
21577317.344 4570139.504 410.923
21577900.000 4570380.000 -445.000
21577323.625 4570149.449 409.954
21578800.000 4570720.000 -1215.000
21578750.000 4570612.500 -1250.000
21578800.000 4570115.000 -1947.500
21579000.000 4570707.500 -1486.250
21579200.000 4570695.000 -1757.500
21579400.000 4570682.500 -2028.750
21579600.000 4570670.000 -2300.000
21579450.000 4570487.500 -2360.000
21579000.000 4569940.000 -2540.000
21579750.000 4570595.000 -2617.500
21579900.000 4570520.000 -2935.000
21580050.000 4570445.000 -3252.500
21580200.000 4570370.000 -3570.000
21579600.000 4569935.000 -3182.500
21578875.000 4569780.000 -2448.750
21580200.000 4570260.000 -3633.750
21580200.000 4570150.000 -3697.500
21580200.000 4570040.000 -3761.250
21580200.000 4569930.000 -3825.000
21578500.000 4569300.000 -2175.000
21579150.000 4569380.000 -2685.000
21578425.000 4569075.000 -2115.000
21580100.000 4569812.500 -3667.500
21580000.000 4569695.000 -3510.000
21579900.000 4569577.500 -3352.500
21579800.000 4569460.000 -3195.000
21579575.000 4569262.500 -3002.500
21578775.000 4568752.500 -2342.500
21578275.000 4569152.500 -1945.000
21579350.000 4569065.000 -2810.000
21579125.000 4568867.500 -2617.500
21578900.000 4568670.000 -2425.000
21577875.000 4568435.000 -1705.000
21577550.000 4568122.500 -2115.000
21577625.000 4568595.000 -1335.000
21577100.000 4568840.000 -755.000
21577175.000 4568422.500 -813.750
21576925.000 4568535.000 -525.000
21576650.000 4567807.500 -1477.500
21576550.000 4568095.000 -475.000
21576200.000 4567575.000 -1805.000
21575600.000 4567365.000 -1380.000
21574550.000 4566922.500 -1282.500
21574850.000 4567027.500 -1495.000
21575375.000 4567380.000 -558.750
21574700.000 4567155.000 -337.500
21576000.000 4568032.500 -140.000
21576300.000 4568130.000 -233.750
21576300.000 4568405.000 -175.000
21576475.000 4568385.000 -251.250
21576150.000 4568435.000 -133.750
21576500.000 4568620.000 -265.000
21576450.000 4568450.000 -230.000
21576450.000 4568712.500 -115.000
21576600.000 4568765.000 -220.000
21576225.000 4568645.000 -32.500
21576400.000 4568805.000 35.000
21576700.000 4568910.000 -175.000
21576800.000 4568950.000 -252.500
21576950.000 4569110.000 -252.500
21576750.000 4568825.000 -336.250
21577000.000 4569020.000 -420.000
21576700.000 4568700.000 -420.000
21577050.000 4568930.000 -587.500
21576625.000 4568595.000 -363.750
21576550.000 4568490.000 -307.500
21576775.000 4568645.000 -455.000
21577025.000 4568570.000 -608.750
21577150.000 4568967.500 -681.250
21577375.000 4569045.000 -971.250
21577250.000 4569222.500 -533.750
21577925.000 4569455.000 -1403.750
21578300.000 4569817.500 -1553.750
21578275.000 4569570.000 -1758.750
21572400.000 4566395.000 326.250
21572200.000 4566230.000 357.500
21572000.000 4566065.000 388.750
21571800.000 4565900.000 420.000
21571900.000 4565852.500 130.000
21571650.000 4565772.500 426.250
21572000.000 4565805.000 -160.000
21571500.000 4565645.000 432.500
21572325.000 4565837.500 -662.500
21572200.000 4565710.000 -740.000
21571200.000 4565390.000 445.000
21572200.000 4565627.500 -795.000
21571900.000 4565455.000 -585.000
21571750.000 4565410.000 -452.500
21571250.000 4565250.000 140.000
21571600.000 4565282.500 -375.000
21571525.000 4565260.000 -308.750
21571300.000 4565110.000 -165.000
21571275.000 4565180.000 -12.500
21571050.000 4565112.500 227.500
21571100.000 4565205.000 300.000
21571000.000 4565020.000 155.000
21570825.000 4565030.000 456.250
21570950.000 4565150.000 452.500
21570700.000 4564910.000 460.000
21571075.000 4565270.000 448.750
21571150.000 4565297.500 372.500
21571350.000 4565517.500 438.750
21571350.000 4565517.500 438.750

POLYGONS 277 1108
3 134 137 135
3 55 54 57
3 118 115 120
3 144 135 142
3 52 51 49
3 175 158 154
3 24 25 27
3 41 125 127
3 166 162 167
3 3 7 152
3 152 151 153
3 11 12 13
3 35 41 40
3 33 32 28
3 106 107 105
3 101 95 102
3 45 44 40
3 72 63 64
3 115 118 116
3 113 110 111
3 139 126 123
3 86 82 87
3 103 100 101
3 115 114 112
3 63 57 61
3 32 31 28
3 175 154 155
3 7 151 152
3 158 175 176
3 47 50 49
3 34 29 35
3 126 125 122
3 104 101 105
3 79 75 76
3 102 109 108
3 88 82 146
3 125 136 128
3 161 157 162
3 100 99 95
3 12 16 13
3 3 152 154
3 17 148 18
3 66 70 65
3 157 4 156
3 107 106 108
3 18 148 10
3 23 22 20
3 110 108 111
3 48 133 47
3 8 9 7
3 62 145 146
3 161 160 157
3 54 56 57
3 160 159 157
3 9 8 11
3 75 74 64
3 42 39 40
3 121 123 122
3 99 94 95
3 19 15 20
3 144 142 143
3 41 124 122
3 74 72 64
3 170 167 171
3 24 20 21
3 139 111 140
3 16 15 13
3 13 14 9
3 82 88 87
3 147 88 146
3 8 7 6
3 47 58 50
3 16 12 116
3 137 109 142
3 115 112 113
3 158 174 162
3 118 119 116
3 117 116 8
3 49 50 52
3 21 26 25
3 114 107 112
3 21 20 15
3 22 19 20
3 173 168 174
3 67 55 65
3 19 17 15
3 13 9 11
3 154 156 3
3 169 166 167
3 127 125 128
3 131 134 132
3 96 94 97
3 138 139 140
3 142 109 143
3 89 86 87
3 29 25 120
3 10 9 14
3 92 91 87
3 128 136 134
3 45 130 44
3 60 144 145
3 34 33 29
3 5 1 0
3 48 130 131
3 111 141 140
3 164 165 163
3 77 74 75
3 131 132 48
3 122 124 36
3 159 4 157
3 85 84 82
3 134 136 137
3 71 66 63
3 24 21 25
3 109 93 143
3 162 166 164
3 126 139 125
3 127 130 129
3 26 118 120
3 61 57 59
3 70 69 65
3 161 164 163
3 56 58 59
3 133 60 47
3 132 133 48
3 138 136 125
3 93 95 94
3 124 35 36
3 131 127 128
3 4 2 156
3 35 39 38
3 161 162 164
3 39 35 40
3 109 141 108
3 150 7 10
3 156 2 3
3 82 86 85
3 152 153 155
3 102 93 109
3 113 111 121
3 30 27 28
3 14 13 15
3 104 103 101
3 101 100 95
3 171 168 173
3 145 143 147
3 55 57 65
3 114 116 117
3 92 93 94
3 122 36 121
3 111 123 121
3 10 7 9
3 45 40 129
3 93 102 95
3 84 83 81
3 60 133 144
3 112 107 110
3 71 63 72
3 170 169 167
3 132 135 133
3 33 28 29
3 54 55 53
3 130 45 129
3 115 116 114
3 66 65 63
3 21 15 26
3 57 63 65
3 124 41 35
3 136 140 141
3 6 7 1
3 60 58 47
3 115 113 120
3 64 146 76
3 0 1 2
3 82 84 81
3 176 175 155
3 135 137 142
3 145 147 146
3 50 54 53
3 79 78 75
3 2 1 3
3 91 90 87
3 99 98 94
3 146 64 61
3 157 156 154
3 4 0 2
3 113 112 110
3 123 126 122
3 106 101 102
3 37 35 38
3 101 106 105
3 15 17 14
3 52 50 53
3 136 109 137
3 8 116 12
3 147 93 88
3 80 76 81
3 98 97 94
3 15 119 26
3 109 136 141
3 143 93 147
3 125 41 122
3 132 134 135
3 113 121 120
3 139 138 125
3 171 167 168
3 130 48 44
3 145 144 143
3 17 18 14
3 150 10 149
3 82 76 146
3 172 169 170
3 162 168 167
3 28 27 25
3 131 130 127
3 93 92 87
3 119 118 26
3 61 62 146
3 154 152 155
3 157 158 162
3 123 111 139
3 25 26 120
3 78 77 75
3 160 161 163
3 106 102 108
3 136 138 140
3 35 29 36
3 7 3 1
3 88 93 87
3 90 89 87
3 49 46 47
3 24 23 20
3 28 25 29
3 119 16 116
3 37 34 35
3 128 134 131
3 5 6 1
3 65 68 67
3 46 43 44
3 58 56 50
3 148 149 10
3 31 30 28
3 169 165 166
3 61 59 62
3 81 83 80
3 41 129 40
3 58 60 59
3 166 165 164
3 144 133 135
3 44 48 47
3 174 168 162
3 76 82 81
3 75 64 76
3 80 79 76
3 16 119 15
3 107 108 110
3 36 29 120
3 96 92 94
3 46 44 47
3 158 157 154
3 60 145 62
3 18 10 14
3 71 72 73
3 36 120 121
3 7 150 151
3 158 173 174
3 51 46 49
3 41 127 129
3 43 40 44
3 50 56 54
3 59 60 62
3 69 68 65
3 8 12 11
3 63 61 64
3 56 59 57
3 108 141 111
3 43 42 40

POINT_DATA 177
COLOR_SCALARS GocadColor 4
1 0.498039 0.313726 1
1 0.498039 0.313726 1
1 0.498039 0.313726 1
1 0.498039 0.313726 1
1 0.498039 0.313726 1
1 0.498039 0.313726 1
1 0.498039 0.313726 1
1 0.498039 0.313726 1
1 0.498039 0.313726 1
1 0.498039 0.313726 1
1 0.498039 0.313726 1
1 0.498039 0.313726 1
1 0.498039 0.313726 1
1 0.498039 0.313726 1
1 0.498039 0.313726 1
1 0.498039 0.313726 1
1 0.498039 0.313726 1
1 0.498039 0.313726 1
1 0.498039 0.313726 1
1 0.498039 0.313726 1
1 0.498039 0.313726 1
1 0.498039 0.313726 1
1 0.498039 0.313726 1
1 0.498039 0.313726 1
1 0.498039 0.313726 1
1 0.498039 0.313726 1
1 0.498039 0.313726 1
1 0.498039 0.313726 1
1 0.498039 0.313726 1
1 0.498039 0.313726 1
1 0.498039 0.313726 1
1 0.498039 0.313726 1
1 0.498039 0.313726 1
1 0.498039 0.313726 1
1 0.498039 0.313726 1
1 0.498039 0.313726 1
1 0.498039 0.313726 1
1 0.498039 0.313726 1
1 0.498039 0.313726 1
1 0.498039 0.313726 1
1 0.498039 0.313726 1
1 0.498039 0.313726 1
1 0.498039 0.313726 1
1 0.498039 0.313726 1
1 0.498039 0.313726 1
1 0.498039 0.313726 1
1 0.498039 0.313726 1
1 0.498039 0.313726 1
1 0.498039 0.313726 1
1 0.498039 0.313726 1
1 0.498039 0.313726 1
1 0.498039 0.313726 1
1 0.498039 0.313726 1
1 0.498039 0.313726 1
1 0.498039 0.313726 1
1 0.498039 0.313726 1
1 0.498039 0.313726 1
1 0.498039 0.313726 1
1 0.498039 0.313726 1
1 0.498039 0.313726 1
1 0.498039 0.313726 1
1 0.498039 0.313726 1
1 0.498039 0.313726 1
1 0.498039 0.313726 1
1 0.498039 0.313726 1
1 0.498039 0.313726 1
1 0.498039 0.313726 1
1 0.498039 0.313726 1
1 0.498039 0.313726 1
1 0.498039 0.313726 1
1 0.498039 0.313726 1
1 0.498039 0.313726 1
1 0.498039 0.313726 1
1 0.498039 0.313726 1
1 0.498039 0.313726 1
1 0.498039 0.313726 1
1 0.498039 0.313726 1
1 0.498039 0.313726 1
1 0.498039 0.313726 1
1 0.498039 0.313726 1
1 0.498039 0.313726 1
1 0.498039 0.313726 1
1 0.498039 0.313726 1
1 0.498039 0.313726 1
1 0.498039 0.313726 1
1 0.498039 0.313726 1
1 0.498039 0.313726 1
1 0.498039 0.313726 1
1 0.498039 0.313726 1
1 0.498039 0.313726 1
1 0.498039 0.313726 1
1 0.498039 0.313726 1
1 0.498039 0.313726 1
1 0.498039 0.313726 1
1 0.498039 0.313726 1
1 0.498039 0.313726 1
1 0.498039 0.313726 1
1 0.498039 0.313726 1
1 0.498039 0.313726 1
1 0.498039 0.313726 1
1 0.498039 0.313726 1
1 0.498039 0.313726 1
1 0.498039 0.313726 1
1 0.498039 0.313726 1
1 0.498039 0.313726 1
1 0.498039 0.313726 1
1 0.498039 0.313726 1
1 0.498039 0.313726 1
1 0.498039 0.313726 1
1 0.498039 0.313726 1
1 0.498039 0.313726 1
1 0.498039 0.313726 1
1 0.498039 0.313726 1
1 0.498039 0.313726 1
1 0.498039 0.313726 1
1 0.498039 0.313726 1
1 0.498039 0.313726 1
1 0.498039 0.313726 1
1 0.498039 0.313726 1
1 0.498039 0.313726 1
1 0.498039 0.313726 1
1 0.498039 0.313726 1
1 0.498039 0.313726 1
1 0.498039 0.313726 1
1 0.498039 0.313726 1
1 0.498039 0.313726 1
1 0.498039 0.313726 1
1 0.498039 0.313726 1
1 0.498039 0.313726 1
1 0.498039 0.313726 1
1 0.498039 0.313726 1
1 0.498039 0.313726 1
1 0.498039 0.313726 1
1 0.498039 0.313726 1
1 0.498039 0.313726 1
1 0.498039 0.313726 1
1 0.498039 0.313726 1
1 0.498039 0.313726 1
1 0.498039 0.313726 1
1 0.498039 0.313726 1
1 0.498039 0.313726 1
1 0.498039 0.313726 1
1 0.498039 0.313726 1
1 0.498039 0.313726 1
1 0.498039 0.313726 1
1 0.498039 0.313726 1
1 0.498039 0.313726 1
1 0.498039 0.313726 1
1 0.498039 0.313726 1
1 0.498039 0.313726 1
1 0.498039 0.313726 1
1 0.498039 0.313726 1
1 0.498039 0.313726 1
1 0.498039 0.313726 1
1 0.498039 0.313726 1
1 0.498039 0.313726 1
1 0.498039 0.313726 1
1 0.498039 0.313726 1
1 0.498039 0.313726 1
1 0.498039 0.313726 1
1 0.498039 0.313726 1
1 0.498039 0.313726 1
1 0.498039 0.313726 1
1 0.498039 0.313726 1
1 0.498039 0.313726 1
1 0.498039 0.313726 1
1 0.498039 0.313726 1
1 0.498039 0.313726 1
1 0.498039 0.313726 1
1 0.498039 0.313726 1
1 0.498039 0.313726 1
1 0.498039 0.313726 1
1 0.498039 0.313726 1
1 0.498039 0.313726 1
1 0.498039 0.313726 1
1 0.498039 0.313726 1
1 0.498039 0.313726 1

