# vtk DataFile Version 3.0
Gocad TSurf to VTK
ASCII
DATASET POLYDATA
POINTS 48 float
21580200.000 4569900.000 -710.000
21579200.000 4569570.000 435.000
21579450.000 4569510.000 7.500
21579150.000 4569475.000 455.000
21580125.000 4569802.500 -672.500
21579850.000 4570020.000 -180.000
21580150.000 4570005.000 -606.250
21579275.000 4569710.000 413.750
21579350.000 4569850.000 392.500
21579275.000 4569710.000 413.750
21579675.000 4570080.000 85.000
21579425.000 4569990.000 371.250
21580050.000 4570215.000 -398.750
21580000.000 4570320.000 -295.000
21579500.000 4570140.000 350.000
21580200.000 4570380.000 -490.000
21580200.000 4570260.000 -545.000
21580225.000 4570275.000 -593.750
21580200.000 4570140.000 -600.000
21580250.000 4570170.000 -697.500
21580200.000 4570020.000 -655.000
21580275.000 4570065.000 -801.250
21580300.000 4569960.000 -905.000
21580200.000 4569847.500 -818.750
21580100.000 4569735.000 -732.500
21580050.000 4569705.000 -635.000
21579825.000 4569562.500 -492.500
21580000.000 4569622.500 -646.250
21579975.000 4569607.500 -597.500
21579900.000 4569510.000 -560.000
21579575.000 4569480.000 -206.250
21579650.000 4569300.000 -381.250
21579500.000 4569255.000 -276.250
21579000.000 4569190.000 515.000
21579400.000 4569090.000 -202.500
21579150.000 4568880.000 -23.750
21579100.000 4568865.000 11.250
21578900.000 4568670.000 155.000
21578900.000 4568650.000 195.000
21578900.000 4569035.000 508.750
21578800.000 4568880.000 502.500
21578900.000 4569035.000 508.750
21578700.000 4568725.000 496.250
21578600.000 4568570.000 490.000
21578700.000 4568725.000 496.250
21579050.000 4569285.000 495.000
21579100.000 4569380.000 475.000
21579500.000 4570130.000 350.000

POLYGONS 66 264
3 33 45 46
3 15 13 12
3 33 30 45
3 2 4 0
3 26 28 25
3 18 16 12
3 6 0 20
3 24 25 27
3 6 18 12
3 0 1 2
3 43 42 44
3 40 42 38
3 5 10 8
3 16 17 15
3 7 5 8
3 23 0 4
3 45 2 46
3 10 11 8
3 14 47 10
3 33 39 36
3 33 32 30
3 29 27 28
3 38 37 36
3 2 30 26
3 32 31 30
3 29 26 30
3 20 0 21
3 32 33 36
3 47 11 10
3 18 20 19
3 26 25 4
3 24 4 25
3 43 38 42
3 31 32 34
3 19 20 21
3 6 12 5
3 36 35 32
3 29 28 26
3 0 6 5
3 9 1 7
3 40 39 41
3 17 18 19
3 2 1 3
3 2 26 4
3 0 22 21
3 31 29 30
3 12 10 5
3 12 16 15
3 46 2 3
3 12 13 10
3 40 38 39
3 44 42 40
3 22 0 23
3 39 38 36
3 39 33 41
3 35 34 32
3 23 4 24
3 1 5 7
3 8 9 7
3 13 14 10
3 6 20 18
3 16 18 17
3 27 25 28
3 1 0 5
3 37 35 36
3 30 2 45

POINT_DATA 48
COLOR_SCALARS GocadColor 4
1 1 0 1
1 1 0 1
1 1 0 1
1 1 0 1
1 1 0 1
1 1 0 1
1 1 0 1
1 1 0 1
1 1 0 1
1 1 0 1
1 1 0 1
1 1 0 1
1 1 0 1
1 1 0 1
1 1 0 1
1 1 0 1
1 1 0 1
1 1 0 1
1 1 0 1
1 1 0 1
1 1 0 1
1 1 0 1
1 1 0 1
1 1 0 1
1 1 0 1
1 1 0 1
1 1 0 1
1 1 0 1
1 1 0 1
1 1 0 1
1 1 0 1
1 1 0 1
1 1 0 1
1 1 0 1
1 1 0 1
1 1 0 1
1 1 0 1
1 1 0 1
1 1 0 1
1 1 0 1
1 1 0 1
1 1 0 1
1 1 0 1
1 1 0 1
1 1 0 1
1 1 0 1
1 1 0 1
1 1 0 1

