# vtk DataFile Version 3.0
Gocad TSurf to VTK
ASCII
DATASET POLYDATA
POINTS 2787 float
21577100.000 4559260.000 -635.000
21576825.000 4559322.500 -615.000
21576950.000 4559415.000 -670.000
21577150.000 4559430.000 -707.500
21577050.000 4559090.000 -562.500
21576700.000 4559230.000 -560.000
21577300.000 4558860.000 -545.000
21577450.000 4558830.000 -572.500
21577150.000 4558890.000 -517.500
21577000.000 4558920.000 -490.000
21577600.000 4558800.000 -600.000
21577200.000 4559600.000 -780.000
21577675.000 4559000.000 -621.250
21577075.000 4559507.500 -725.000
21577375.000 4559600.000 -756.250
21577800.000 4558822.500 -582.500
21577800.000 4558785.000 -575.000
21578000.000 4558845.000 -565.000
21577750.000 4559200.000 -642.500
21578200.000 4558867.500 -547.500
21577550.000 4559600.000 -732.500
21577375.000 4559602.500 -756.250
21577825.000 4559400.000 -663.750
21577725.000 4559600.000 -708.750
21578400.000 4558890.000 -530.000
21578200.000 4558755.000 -525.000
21577900.000 4559600.000 -685.000
21578425.000 4559082.500 -582.500
21577725.000 4559607.500 -708.750
21577550.000 4559605.000 -732.500
21577900.000 4559610.000 -685.000
21578050.000 4559615.000 -698.750
21578050.000 4559622.500 -698.750
21578450.000 4559275.000 -635.000
21578200.000 4559630.000 -712.500
21578600.000 4558867.500 -533.750
21578800.000 4558845.000 -537.500
21578400.000 4558740.000 -500.000
21578600.000 4558755.000 -511.250
21578625.000 4558712.500 -500.000
21578800.000 4558770.000 -522.500
21579000.000 4558822.500 -541.250
21578475.000 4559467.500 -687.500
21579000.000 4558785.000 -533.750
21578850.000 4558685.000 -500.000
21579200.000 4558800.000 -545.000
21579075.000 4558657.500 -500.000
21578500.000 4559660.000 -740.000
21579125.000 4559032.500 -530.000
21578350.000 4559645.000 -726.250
21578350.000 4559647.500 -726.250
21578200.000 4559635.000 -712.500
21578350.000 4559647.500 -726.250
21578200.000 4559635.000 -712.500
21578050.000 4559622.500 -698.750
21578600.000 4559677.500 -676.250
21579300.000 4558787.500 -467.500
21579400.000 4558775.000 -390.000
21579300.000 4558630.000 -500.000
21579375.000 4558660.000 -433.750
21579450.000 4558560.000 -412.500
21579450.000 4558690.000 -367.500
21579500.000 4558495.000 -408.750
21579600.000 4558490.000 -325.000
21579550.000 4558440.000 -408.750
21579700.000 4558360.000 -317.500
21579800.000 4558250.000 -317.500
21579900.000 4558225.000 -226.250
21579750.000 4558420.000 -237.500
21580050.000 4558060.000 -226.250
21580100.000 4558090.000 -135.000
21579900.000 4558350.000 -150.000
21580300.000 4557870.000 -135.000
21580200.000 4558102.500 -198.750
21580050.000 4558297.500 -210.000
21580350.000 4557937.500 -198.750
21580300.000 4558115.000 -262.500
21580475.000 4557775.000 -150.000
21580400.000 4558005.000 -262.500
21580650.000 4557680.000 -165.000
21580450.000 4558072.500 -326.250
21580400.000 4558127.500 -326.250
21580825.000 4557585.000 -180.000
21580500.000 4558140.000 -390.000
21581000.000 4557490.000 -195.000
21580700.000 4558025.000 -341.250
21580550.000 4558242.500 -400.000
21581075.000 4557537.500 -195.000
21581125.000 4557472.500 -181.250
21580900.000 4557910.000 -292.500
21580600.000 4558345.000 -410.000
21581150.000 4557585.000 -195.000
21581100.000 4557795.000 -243.750
21580650.000 4558447.500 -420.000
21581225.000 4557632.500 -195.000
21581250.000 4557455.000 -167.500
21581300.000 4557680.000 -195.000
21581375.000 4557437.500 -153.750
21580700.000 4558550.000 -430.000
21581250.000 4557902.500 -278.750
21580125.000 4559205.000 -630.000
21580250.000 4558850.000 -550.000
21580000.000 4559560.000 -710.000
21580575.000 4558850.000 -528.750
21579825.000 4559607.500 -745.000
21579650.000 4559655.000 -780.000
21580000.000 4559570.000 -710.000
21580050.000 4559607.500 -738.750
21579825.000 4559615.000 -745.000
21579650.000 4559660.000 -780.000
21579475.000 4559702.500 -815.000
21579475.000 4559705.000 -815.000
21579300.000 4559750.000 -850.000
21580375.000 4558495.000 -470.000
21579375.000 4559500.000 -696.250
21580275.000 4558292.500 -351.250
21579200.000 4559745.000 -758.750
21579175.000 4559745.000 -758.750
21579100.000 4559740.000 -667.500
21579450.000 4559250.000 -542.500
21579000.000 4559735.000 -576.250
21580050.000 4558445.000 -312.500
21580200.000 4558245.000 -270.000
21579525.000 4559000.000 -388.750
21579825.000 4558597.500 -273.750
21578900.000 4559730.000 -485.000
21578925.000 4559735.000 -576.250
21579600.000 4558750.000 -235.000
21578975.000 4559497.500 -500.000
21580350.000 4558192.500 -330.000
21579525.000 4558720.000 -301.250
21579500.000 4558762.500 -312.500
21579050.000 4559265.000 -515.000
21578700.000 4559695.000 -612.500
21578650.000 4559695.000 -612.500
21578800.000 4559712.500 -548.750
21578725.000 4559712.500 -548.750
21578800.000 4559730.000 -485.000
21578725.000 4559712.500 -548.750
21578650.000 4559695.000 -612.500
21578575.000 4559677.500 -676.250
21578575.000 4559677.500 -676.250
21579050.000 4559740.000 -667.500
21580050.000 4559615.000 -738.750
21580450.000 4559150.000 -627.500
21580100.000 4559655.000 -767.500
21580900.000 4558560.000 -480.000
21581000.000 4558565.000 -505.000
21580800.000 4558555.000 -455.000
21581200.000 4558125.000 -362.500
21581500.000 4557675.000 -257.500
21581600.000 4557672.500 -288.750
21581400.000 4557677.500 -226.250
21581550.000 4557482.500 -185.000
21581500.000 4557420.000 -140.000
21581600.000 4557400.000 -163.750
21581600.000 4557545.000 -230.000
21581700.000 4557380.000 -187.500
21581650.000 4557607.500 -275.000
21581700.000 4557670.000 -320.000
21581800.000 4557360.000 -211.250
21581150.000 4558347.500 -446.250
21581100.000 4558570.000 -530.000
21581350.000 4558505.000 -460.000
21580325.000 4559450.000 -726.250
21580200.000 4559750.000 -825.000
21580150.000 4559702.500 -796.250
21580500.000 4559605.000 -741.250
21580300.000 4559885.000 -817.500
21581175.000 4558720.000 -520.000
21580800.000 4559460.000 -657.500
21581250.000 4558870.000 -510.000
21581600.000 4558440.000 -390.000
21581800.000 4557830.000 -302.500
21581325.000 4559020.000 -500.000
21581100.000 4559315.000 -573.750
21581850.000 4558375.000 -320.000
21581900.000 4557990.000 -285.000
21581400.000 4559170.000 -490.000
21582100.000 4558310.000 -250.000
21582000.000 4558150.000 -267.500
21581650.000 4559042.500 -441.250
21581425.000 4559367.500 -535.000
21582175.000 4558397.500 -261.250
21582300.000 4558230.000 -218.750
21581900.000 4558915.000 -392.500
21581450.000 4559565.000 -580.000
21582250.000 4558485.000 -272.500
21582150.000 4558787.500 -343.750
21581475.000 4559762.500 -625.000
21582325.000 4558572.500 -283.750
21582500.000 4558150.000 -187.500
21582400.000 4558660.000 -295.000
21582700.000 4558070.000 -156.250
21581500.000 4559960.000 -670.000
21581775.000 4559817.500 -593.750
21581475.000 4559770.000 -625.000
21581450.000 4559570.000 -580.000
21581500.000 4559970.000 -670.000
21581775.000 4559825.000 -593.750
21581275.000 4560050.000 -701.250
21581275.000 4560050.000 -701.250
21581050.000 4560130.000 -732.500
21581050.000 4560130.000 -732.500
21580825.000 4560210.000 -763.750
21581425.000 4559370.000 -535.000
21580825.000 4560210.000 -763.750
21580600.000 4560290.000 -795.000
21580500.000 4560155.000 -802.500
21580500.000 4560155.000 -802.500
21580400.000 4560020.000 -810.000
21580500.000 4560155.000 -802.500
21580400.000 4560020.000 -810.000
21580300.000 4559885.000 -817.500
21580300.000 4559885.000 -817.500
21580400.000 4560020.000 -810.000
21582050.000 4559680.000 -517.500
21582050.000 4559675.000 -517.500
21582450.000 4558842.500 -312.500
21582325.000 4559535.000 -441.250
21582325.000 4559532.500 -441.250
21582500.000 4559025.000 -330.000
21582600.000 4559390.000 -365.000
21582550.000 4559207.500 -347.500
21582600.000 4559380.000 -365.000
21582550.000 4559200.000 -347.500
21582500.000 4559020.000 -330.000
21582850.000 4558765.000 -231.250
21582450.000 4558840.000 -312.500
21582700.000 4558730.000 -252.500
21582550.000 4558695.000 -273.750
21582925.000 4558192.500 -146.250
21582950.000 4558395.000 -167.500
21582975.000 4558597.500 -188.750
21583200.000 4558342.500 -166.250
21583300.000 4558460.000 -180.000
21583100.000 4558225.000 -152.500
21583225.000 4558310.000 -166.250
21583000.000 4558107.500 -138.750
21583150.000 4558160.000 -152.500
21582900.000 4557990.000 -125.000
21583075.000 4558010.000 -138.750
21582850.000 4557885.000 -107.500
21583000.000 4557860.000 -125.000
21582800.000 4557780.000 -90.000
21582925.000 4557787.500 -107.500
21582750.000 4557675.000 -72.500
21582850.000 4557715.000 -90.000
21582700.000 4557570.000 -55.000
21582775.000 4557642.500 -72.500
21582050.000 4558067.500 -246.250
21582500.000 4557512.500 -100.000
21582000.000 4557825.000 -242.500
21581950.000 4557582.500 -238.750
21582300.000 4557455.000 -145.000
21581900.000 4557340.000 -235.000
21582100.000 4557397.500 -190.000
21582850.000 4557560.000 -86.250
21583000.000 4557550.000 -117.500
21583150.000 4557540.000 -148.750
21583300.000 4557530.000 -180.000
21583150.000 4557900.000 -156.250
21583375.000 4557652.500 -197.500
21583450.000 4557570.000 -215.000
21583300.000 4557940.000 -187.500
21583450.000 4557775.000 -215.000
21583450.000 4557980.000 -218.750
21583525.000 4557897.500 -232.500
21583600.000 4557610.000 -250.000
21583600.000 4558020.000 -250.000
21583750.000 4557650.000 -285.000
21583625.000 4558205.000 -246.250
21583400.000 4558535.000 -193.750
21583700.000 4558092.500 -302.500
21583925.000 4557845.000 -355.000
21583800.000 4558165.000 -355.000
21583950.000 4558000.000 -390.000
21583650.000 4558390.000 -242.500
21583900.000 4558237.500 -407.500
21583500.000 4558610.000 -207.500
21583350.000 4558780.000 -222.500
21583675.000 4558575.000 -238.750
21583600.000 4558685.000 -221.250
21584000.000 4558310.000 -460.000
21583975.000 4558155.000 -425.000
21583700.000 4558760.000 -235.000
21584025.000 4558425.000 -432.500
21583525.000 4558770.000 -228.750
21583500.000 4559150.000 -110.000
21583725.000 4558872.500 -232.500
21583375.000 4559062.500 -135.000
[...]
POINT_DATA 2787
COLOR_SCALARS GocadColor 4
0.529412 0.807843 0.921569 1
0.529412 0.807843 0.921569 1
0.529412 0.807843 0.921569 1
0.529412 0.807843 0.921569 1
0.529412 0.807843 0.921569 1
0.529412 0.807843 0.921569 1
0.529412 0.807843 0.921569 1
0.529412 0.807843 0.921569 1
0.529412 0.807843 0.921569 1
0.529412 0.807843 0.921569 1
0.529412 0.807843 0.921569 1
0.529412 0.807843 0.921569 1
0.529412 0.807843 0.921569 1
0.529412 0.807843 0.921569 1
0.529412 0.807843 0.921569 1
0.529412 0.807843 0.921569 1
0.529412 0.807843 0.921569 1
0.529412 0.807843 0.921569 1
0.529412 0.807843 0.921569 1
0.529412 0.807843 0.921569 1
0.529412 0.807843 0.921569 1
0.529412 0.807843 0.921569 1
0.529412 0.807843 0.921569 1
0.529412 0.807843 0.921569 1
0.529412 0.807843 0.921569 1
0.529412 0.807843 0.921569 1
0.529412 0.807843 0.921569 1
0.529412 0.807843 0.921569 1
0.529412 0.807843 0.921569 1
0.529412 0.807843 0.921569 1
0.529412 0.807843 0.921569 1
0.529412 0.807843 0.921569 1
0.529412 0.807843 0.921569 1
0.529412 0.807843 0.921569 1
0.529412 0.807843 0.921569 1
0.529412 0.807843 0.921569 1
0.529412 0.807843 0.921569 1
0.529412 0.807843 0.921569 1
0.529412 0.807843 0.921569 1
0.529412 0.807843 0.921569 1
0.529412 0.807843 0.921569 1
0.529412 0.807843 0.921569 1
0.529412 0.807843 0.921569 1
0.529412 0.807843 0.921569 1
0.529412 0.807843 0.921569 1
0.529412 0.807843 0.921569 1
0.529412 0.807843 0.921569 1
0.529412 0.807843 0.921569 1
0.529412 0.807843 0.921569 1
0.529412 0.807843 0.921569 1
0.529412 0.807843 0.921569 1
0.529412 0.807843 0.921569 1
0.529412 0.807843 0.921569 1
0.529412 0.807843 0.921569 1
0.529412 0.807843 0.921569 1
0.529412 0.807843 0.921569 1
0.529412 0.807843 0.921569 1
0.529412 0.807843 0.921569 1
0.529412 0.807843 0.921569 1
0.529412 0.807843 0.921569 1
0.529412 0.807843 0.921569 1
0.529412 0.807843 0.921569 1
0.529412 0.807843 0.921569 1
0.529412 0.807843 0.921569 1
0.529412 0.807843 0.921569 1
0.529412 0.807843 0.921569 1
0.529412 0.807843 0.921569 1
0.529412 0.807843 0.921569 1
0.529412 0.807843 0.921569 1
0.529412 0.807843 0.921569 1
0.529412 0.807843 0.921569 1
0.529412 0.807843 0.921569 1
0.529412 0.807843 0.921569 1
0.529412 0.807843 0.921569 1
0.529412 0.807843 0.921569 1
0.529412 0.807843 0.921569 1
0.529412 0.807843 0.921569 1
0.529412 0.807843 0.921569 1
0.529412 0.807843 0.921569 1
0.529412 0.807843 0.921569 1
0.529412 0.807843 0.921569 1
0.529412 0.807843 0.921569 1
0.529412 0.807843 0.921569 1
0.529412 0.807843 0.921569 1
0.529412 0.807843 0.921569 1
0.529412 0.807843 0.921569 1
0.529412 0.807843 0.921569 1
0.529412 0.807843 0.921569 1
0.529412 0.807843 0.921569 1
0.529412 0.807843 0.921569 1
0.529412 0.807843 0.921569 1
0.529412 0.807843 0.921569 1
0.529412 0.807843 0.921569 1
0.529412 0.807843 0.921569 1
0.529412 0.807843 0.921569 1
0.529412 0.807843 0.921569 1
0.529412 0.807843 0.921569 1
0.529412 0.807843 0.921569 1
0.529412 0.807843 0.921569 1
0.529412 0.807843 0.921569 1
0.529412 0.807843 0.921569 1
0.529412 0.807843 0.921569 1
0.529412 0.807843 0.921569 1
0.529412 0.807843 0.921569 1
0.529412 0.807843 0.921569 1
0.529412 0.807843 0.921569 1
0.529412 0.807843 0.921569 1
0.529412 0.807843 0.921569 1
0.529412 0.807843 0.921569 1
0.529412 0.807843 0.921569 1
0.529412 0.807843 0.921569 1
0.529412 0.807843 0.921569 1
0.529412 0.807843 0.921569 1
0.529412 0.807843 0.921569 1
0.529412 0.807843 0.921569 1
0.529412 0.807843 0.921569 1
0.529412 0.807843 0.921569 1
0.529412 0.807843 0.921569 1
0.529412 0.807843 0.921569 1
0.529412 0.807843 0.921569 1
0.529412 0.807843 0.921569 1
0.529412 0.807843 0.921569 1
0.529412 0.807843 0.921569 1
0.529412 0.807843 0.921569 1
0.529412 0.807843 0.921569 1
0.529412 0.807843 0.921569 1
0.529412 0.807843 0.921569 1
0.529412 0.807843 0.921569 1
0.529412 0.807843 0.921569 1
0.529412 0.807843 0.921569 1
0.529412 0.807843 0.921569 1
0.529412 0.807843 0.921569 1
0.529412 0.807843 0.921569 1
0.529412 0.807843 0.921569 1
0.529412 0.807843 0.921569 1
0.529412 0.807843 0.921569 1
0.529412 0.807843 0.921569 1
0.529412 0.807843 0.921569 1
0.529412 0.807843 0.921569 1
0.529412 0.807843 0.921569 1
0.529412 0.807843 0.921569 1
0.529412 0.807843 0.921569 1
0.529412 0.807843 0.921569 1
0.529412 0.807843 0.921569 1
0.529412 0.807843 0.921569 1
0.529412 0.807843 0.921569 1
0.529412 0.807843 0.921569 1
0.529412 0.807843 0.921569 1
0.529412 0.807843 0.921569 1
0.529412 0.807843 0.921569 1
0.529412 0.807843 0.921569 1
0.529412 0.807843 0.921569 1
0.529412 0.807843 0.921569 1
0.529412 0.807843 0.921569 1
0.529412 0.807843 0.921569 1
0.529412 0.807843 0.921569 1
0.529412 0.807843 0.921569 1
0.529412 0.807843 0.921569 1
0.529412 0.807843 0.921569 1
0.529412 0.807843 0.921569 1
0.529412 0.807843 0.921569 1
0.529412 0.807843 0.921569 1
0.529412 0.807843 0.921569 1
0.529412 0.807843 0.921569 1
0.529412 0.807843 0.921569 1
0.529412 0.807843 0.921569 1
0.529412 0.807843 0.921569 1
0.529412 0.807843 0.921569 1
0.529412 0.807843 0.921569 1
0.529412 0.807843 0.921569 1
0.529412 0.807843 0.921569 1
0.529412 0.807843 0.921569 1
0.529412 0.807843 0.921569 1
0.529412 0.807843 0.921569 1
0.529412 0.807843 0.921569 1
0.529412 0.807843 0.921569 1
0.529412 0.807843 0.921569 1
0.529412 0.807843 0.921569 1
0.529412 0.807843 0.921569 1
0.529412 0.807843 0.921569 1
0.529412 0.807843 0.921569 1
0.529412 0.807843 0.921569 1
0.529412 0.807843 0.921569 1
0.529412 0.807843 0.921569 1
0.529412 0.807843 0.921569 1
0.529412 0.807843 0.921569 1
0.529412 0.807843 0.921569 1
0.529412 0.807843 0.921569 1
0.529412 0.807843 0.921569 1
0.529412 0.807843 0.921569 1
0.529412 0.807843 0.921569 1
0.529412 0.807843 0.921569 1
0.529412 0.807843 0.921569 1
0.529412 0.807843 0.921569 1
0.529412 0.807843 0.921569 1
0.529412 0.807843 0.921569 1
0.529412 0.807843 0.921569 1
0.529412 0.807843 0.921569 1
0.529412 0.807843 0.921569 1
0.529412 0.807843 0.921569 1
0.529412 0.807843 0.921569 1
0.529412 0.807843 0.921569 1
0.529412 0.807843 0.921569 1
0.529412 0.807843 0.921569 1
0.529412 0.807843 0.921569 1
0.529412 0.807843 0.921569 1
0.529412 0.807843 0.921569 1
0.529412 0.807843 0.921569 1
0.529412 0.807843 0.921569 1
0.529412 0.807843 0.921569 1
0.529412 0.807843 0.921569 1
0.529412 0.807843 0.921569 1
0.529412 0.807843 0.921569 1
0.529412 0.807843 0.921569 1
0.529412 0.807843 0.921569 1
0.529412 0.807843 0.921569 1
0.529412 0.807843 0.921569 1
0.529412 0.807843 0.921569 1
0.529412 0.807843 0.921569 1
0.529412 0.807843 0.921569 1
0.529412 0.807843 0.921569 1
0.529412 0.807843 0.921569 1
0.529412 0.807843 0.921569 1
0.529412 0.807843 0.921569 1
0.529412 0.807843 0.921569 1
0.529412 0.807843 0.921569 1
0.529412 0.807843 0.921569 1
0.529412 0.807843 0.921569 1
0.529412 0.807843 0.921569 1
0.529412 0.807843 0.921569 1
0.529412 0.807843 0.921569 1
0.529412 0.807843 0.921569 1
0.529412 0.807843 0.921569 1
0.529412 0.807843 0.921569 1
0.529412 0.807843 0.921569 1
0.529412 0.807843 0.921569 1
0.529412 0.807843 0.921569 1
0.529412 0.807843 0.921569 1
0.529412 0.807843 0.921569 1
0.529412 0.807843 0.921569 1
0.529412 0.807843 0.921569 1
0.529412 0.807843 0.921569 1
0.529412 0.807843 0.921569 1
0.529412 0.807843 0.921569 1
0.529412 0.807843 0.921569 1
0.529412 0.807843 0.921569 1
0.529412 0.807843 0.921569 1
0.529412 0.807843 0.921569 1
0.529412 0.807843 0.921569 1
0.529412 0.807843 0.921569 1
0.529412 0.807843 0.921569 1
0.529412 0.807843 0.921569 1
0.529412 0.807843 0.921569 1
0.529412 0.807843 0.921569 1
0.529412 0.807843 0.921569 1
0.529412 0.807843 0.921569 1
0.529412 0.807843 0.921569 1
0.529412 0.807843 0.921569 1
0.529412 0.807843 0.921569 1
0.529412 0.807843 0.921569 1
0.529412 0.807843 0.921569 1
0.529412 0.807843 0.921569 1
0.529412 0.807843 0.921569 1
0.529412 0.807843 0.921569 1
0.529412 0.807843 0.921569 1
0.529412 0.807843 0.921569 1
0.529412 0.807843 0.921569 1
0.529412 0.807843 0.921569 1
0.529412 0.807843 0.921569 1
0.529412 0.807843 0.921569 1
0.529412 0.807843 0.921569 1
0.529412 0.807843 0.921569 1
0.529412 0.807843 0.921569 1
0.529412 0.807843 0.921569 1
0.529412 0.807843 0.921569 1
0.529412 0.807843 0.921569 1
0.529412 0.807843 0.921569 1
0.529412 0.807843 0.921569 1
0.529412 0.807843 0.921569 1
0.529412 0.807843 0.921569 1
0.529412 0.807843 0.921569 1
0.529412 0.807843 0.921569 1
0.529412 0.807843 0.921569 1
0.529412 0.807843 0.921569 1
0.529412 0.807843 0.921569 1
0.529412 0.807843 0.921569 1
0.529412 0.807843 0.921569 1
0.529412 0.807843 0.921569 1
0.529412 0.807843 0.921569 1
0.529412 0.807843 0.921569 1
0.529412 0.807843 0.921569 1
0.529412 0.807843 0.921569 1
0.529412 0.807843 0.921569 1
0.529412 0.807843 0.921569 1
0.529412 0.807843 0.921569 1
0.529412 0.807843 0.921569 1
0.529412 0.807843 0.921569 1
0.529412 0.807843 0.921569 1
0.529412 0.807843 0.921569 1
0.529412 0.807843 0.921569 1
0.529412 0.807843 0.921569 1
0.529412 0.807843 0.921569 1
0.529412 0.807843 0.921569 1
0.529412 0.807843 0.921569 1
0.529412 0.807843 0.921569 1
0.529412 0.807843 0.921569 1
0.529412 0.807843 0.921569 1
0.529412 0.807843 0.921569 1
0.529412 0.807843 0.921569 1
0.529412 0.807843 0.921569 1
0.529412 0.807843 0.921569 1
0.529412 0.807843 0.921569 1
0.529412 0.807843 0.921569 1
0.529412 0.807843 0.921569 1
0.529412 0.807843 0.921569 1
0.529412 0.807843 0.921569 1
0.529412 0.807843 0.921569 1
0.529412 0.807843 0.921569 1
0.529412 0.807843 0.921569 1
0.529412 0.807843 0.921569 1
0.529412 0.807843 0.921569 1
0.529412 0.807843 0.921569 1
0.529412 0.807843 0.921569 1
0.529412 0.807843 0.921569 1
0.529412 0.807843 0.921569 1
0.529412 0.807843 0.921569 1
0.529412 0.807843 0.921569 1
0.529412 0.807843 0.921569 1
0.529412 0.807843 0.921569 1
0.529412 0.807843 0.921569 1
0.529412 0.807843 0.921569 1
0.529412 0.807843 0.921569 1
0.529412 0.807843 0.921569 1
0.529412 0.807843 0.921569 1
0.529412 0.807843 0.921569 1
0.529412 0.807843 0.921569 1
0.529412 0.807843 0.921569 1
0.529412 0.807843 0.921569 1
0.529412 0.807843 0.921569 1
0.529412 0.807843 0.921569 1
0.529412 0.807843 0.921569 1
0.529412 0.807843 0.921569 1
0.529412 0.807843 0.921569 1
0.529412 0.807843 0.921569 1
0.529412 0.807843 0.921569 1
0.529412 0.807843 0.921569 1
0.529412 0.807843 0.921569 1
0.529412 0.807843 0.921569 1
0.529412 0.807843 0.921569 1
0.529412 0.807843 0.921569 1
0.529412 0.807843 0.921569 1
0.529412 0.807843 0.921569 1
0.529412 0.807843 0.921569 1
0.529412 0.807843 0.921569 1
0.529412 0.807843 0.921569 1
0.529412 0.807843 0.921569 1
0.529412 0.807843 0.921569 1
0.529412 0.807843 0.921569 1
0.529412 0.807843 0.921569 1
0.529412 0.807843 0.921569 1
0.529412 0.807843 0.921569 1
0.529412 0.807843 0.921569 1
0.529412 0.807843 0.921569 1
0.529412 0.807843 0.921569 1
0.529412 0.807843 0.921569 1
0.529412 0.807843 0.921569 1
0.529412 0.807843 0.921569 1
0.529412 0.807843 0.921569 1
0.529412 0.807843 0.921569 1
0.529412 0.807843 0.921569 1
0.529412 0.807843 0.921569 1
0.529412 0.807843 0.921569 1
0.529412 0.807843 0.921569 1
0.529412 0.807843 0.921569 1
0.529412 0.807843 0.921569 1
0.529412 0.807843 0.921569 1
0.529412 0.807843 0.921569 1
0.529412 0.807843 0.921569 1
0.529412 0.807843 0.921569 1
0.529412 0.807843 0.921569 1
0.529412 0.807843 0.921569 1
0.529412 0.807843 0.921569 1
0.529412 0.807843 0.921569 1
0.529412 0.807843 0.921569 1
0.529412 0.807843 0.921569 1
0.529412 0.807843 0.921569 1
0.529412 0.807843 0.921569 1
0.529412 0.807843 0.921569 1
0.529412 0.807843 0.921569 1
0.529412 0.807843 0.921569 1
0.529412 0.807843 0.921569 1
0.529412 0.807843 0.921569 1
0.529412 0.807843 0.921569 1
0.529412 0.807843 0.921569 1
0.529412 0.807843 0.921569 1
0.529412 0.807843 0.921569 1
0.529412 0.807843 0.921569 1
0.529412 0.807843 0.921569 1
0.529412 0.807843 0.921569 1
0.529412 0.807843 0.921569 1
0.529412 0.807843 0.921569 1
0.529412 0.807843 0.921569 1
0.529412 0.807843 0.921569 1
0.529412 0.807843 0.921569 1
0.529412 0.807843 0.921569 1
0.529412 0.807843 0.921569 1
0.529412 0.807843 0.921569 1
0.529412 0.807843 0.921569 1
0.529412 0.807843 0.921569 1
0.529412 0.807843 0.921569 1
0.529412 0.807843 0.921569 1
0.529412 0.807843 0.921569 1
0.529412 0.807843 0.921569 1
0.529412 0.807843 0.921569 1
0.529412 0.807843 0.921569 1
0.529412 0.807843 0.921569 1
0.529412 0.807843 0.921569 1
0.529412 0.807843 0.921569 1
0.529412 0.807843 0.921569 1
0.529412 0.807843 0.921569 1
0.529412 0.807843 0.921569 1
0.529412 0.807843 0.921569 1
0.529412 0.807843 0.921569 1
0.529412 0.807843 0.921569 1
0.529412 0.807843 0.921569 1
0.529412 0.807843 0.921569 1
0.529412 0.807843 0.921569 1
0.529412 0.807843 0.921569 1
0.529412 0.807843 0.921569 1
0.529412 0.807843 0.921569 1
0.529412 0.807843 0.921569 1
0.529412 0.807843 0.921569 1
0.529412 0.807843 0.921569 1
0.529412 0.807843 0.921569 1
0.529412 0.807843 0.921569 1
0.529412 0.807843 0.921569 1
0.529412 0.807843 0.921569 1
0.529412 0.807843 0.921569 1
0.529412 0.807843 0.921569 1
0.529412 0.807843 0.921569 1
0.529412 0.807843 0.921569 1
0.529412 0.807843 0.921569 1
0.529412 0.807843 0.921569 1
0.529412 0.807843 0.921569 1
0.529412 0.807843 0.921569 1
0.529412 0.807843 0.921569 1
0.529412 0.807843 0.921569 1
0.529412 0.807843 0.921569 1
0.529412 0.807843 0.921569 1
0.529412 0.807843 0.921569 1
0.529412 0.807843 0.921569 1
0.529412 0.807843 0.921569 1
0.529412 0.807843 0.921569 1
0.529412 0.807843 0.921569 1
0.529412 0.807843 0.921569 1
0.529412 0.807843 0.921569 1
0.529412 0.807843 0.921569 1
0.529412 0.807843 0.921569 1
0.529412 0.807843 0.921569 1
0.529412 0.807843 0.921569 1
0.529412 0.807843 0.921569 1
0.529412 0.807843 0.921569 1
0.529412 0.807843 0.921569 1
0.529412 0.807843 0.921569 1
0.529412 0.807843 0.921569 1
0.529412 0.807843 0.921569 1
0.529412 0.807843 0.921569 1
0.529412 0.807843 0.921569 1
0.529412 0.807843 0.921569 1
0.529412 0.807843 0.921569 1
0.529412 0.807843 0.921569 1
0.529412 0.807843 0.921569 1
0.529412 0.807843 0.921569 1
0.529412 0.807843 0.921569 1
0.529412 0.807843 0.921569 1
0.529412 0.807843 0.921569 1
0.529412 0.807843 0.921569 1
0.529412 0.807843 0.921569 1
0.529412 0.807843 0.921569 1
0.529412 0.807843 0.921569 1
0.529412 0.807843 0.921569 1
0.529412 0.807843 0.921569 1
0.529412 0.807843 0.921569 1
0.529412 0.807843 0.921569 1
0.529412 0.807843 0.921569 1
0.529412 0.807843 0.921569 1
0.529412 0.807843 0.921569 1
0.529412 0.807843 0.921569 1
0.529412 0.807843 0.921569 1
0.529412 0.807843 0.921569 1
0.529412 0.807843 0.921569 1
0.529412 0.807843 0.921569 1
0.529412 0.807843 0.921569 1
0.529412 0.807843 0.921569 1
0.529412 0.807843 0.921569 1
0.529412 0.807843 0.921569 1
0.529412 0.807843 0.921569 1
0.529412 0.807843 0.921569 1
0.529412 0.807843 0.921569 1
0.529412 0.807843 0.921569 1
0.529412 0.807843 0.921569 1
0.529412 0.807843 0.921569 1
0.529412 0.807843 0.921569 1
0.529412 0.807843 0.921569 1
0.529412 0.807843 0.921569 1
0.529412 0.807843 0.921569 1
0.529412 0.807843 0.921569 1
0.529412 0.807843 0.921569 1
0.529412 0.807843 0.921569 1
0.529412 0.807843 0.921569 1
0.529412 0.807843 0.921569 1
0.529412 0.807843 0.921569 1
0.529412 0.807843 0.921569 1
0.529412 0.807843 0.921569 1
0.529412 0.807843 0.921569 1
0.529412 0.807843 0.921569 1
0.529412 0.807843 0.921569 1
0.529412 0.807843 0.921569 1
0.529412 0.807843 0.921569 1
0.529412 0.807843 0.921569 1
0.529412 0.807843 0.921569 1
0.529412 0.807843 0.921569 1
0.529412 0.807843 0.921569 1
0.529412 0.807843 0.921569 1
0.529412 0.807843 0.921569 1
0.529412 0.807843 0.921569 1
0.529412 0.807843 0.921569 1
0.529412 0.807843 0.921569 1
0.529412 0.807843 0.921569 1
0.529412 0.807843 0.921569 1
0.529412 0.807843 0.921569 1
0.529412 0.807843 0.921569 1
0.529412 0.807843 0.921569 1
0.529412 0.807843 0.921569 1
0.529412 0.807843 0.921569 1
0.529412 0.807843 0.921569 1
0.529412 0.807843 0.921569 1
0.529412 0.807843 0.921569 1
0.529412 0.807843 0.921569 1
0.529412 0.807843 0.921569 1
0.529412 0.807843 0.921569 1
0.529412 0.807843 0.921569 1
0.529412 0.807843 0.921569 1
0.529412 0.807843 0.921569 1
0.529412 0.807843 0.921569 1
0.529412 0.807843 0.921569 1
0.529412 0.807843 0.921569 1
0.529412 0.807843 0.921569 1
0.529412 0.807843 0.921569 1
0.529412 0.807843 0.921569 1
0.529412 0.807843 0.921569 1
0.529412 0.807843 0.921569 1
0.529412 0.807843 0.921569 1
0.529412 0.807843 0.921569 1
0.529412 0.807843 0.921569 1
0.529412 0.807843 0.921569 1
0.529412 0.807843 0.921569 1
0.529412 0.807843 0.921569 1
0.529412 0.807843 0.921569 1
0.529412 0.807843 0.921569 1
0.529412 0.807843 0.921569 1
0.529412 0.807843 0.921569 1
0.529412 0.807843 0.921569 1
0.529412 0.807843 0.921569 1
0.529412 0.807843 0.921569 1
0.529412 0.807843 0.921569 1
0.529412 0.807843 0.921569 1
0.529412 0.807843 0.921569 1
0.529412 0.807843 0.921569 1
0.529412 0.807843 0.921569 1
0.529412 0.807843 0.921569 1
0.529412 0.807843 0.921569 1
0.529412 0.807843 0.921569 1
0.529412 0.807843 0.921569 1
0.529412 0.807843 0.921569 1
0.529412 0.807843 0.921569 1
0.529412 0.807843 0.921569 1
0.529412 0.807843 0.921569 1
0.529412 0.807843 0.921569 1
0.529412 0.807843 0.921569 1
0.529412 0.807843 0.921569 1
0.529412 0.807843 0.921569 1
0.529412 0.807843 0.921569 1
0.529412 0.807843 0.921569 1
0.529412 0.807843 0.921569 1
0.529412 0.807843 0.921569 1
0.529412 0.807843 0.921569 1
0.529412 0.807843 0.921569 1
0.529412 0.807843 0.921569 1
0.529412 0.807843 0.921569 1
0.529412 0.807843 0.921569 1
0.529412 0.807843 0.921569 1
0.529412 0.807843 0.921569 1
0.529412 0.807843 0.921569 1
0.529412 0.807843 0.921569 1
0.529412 0.807843 0.921569 1
0.529412 0.807843 0.921569 1
0.529412 0.807843 0.921569 1
0.529412 0.807843 0.921569 1
0.529412 0.807843 0.921569 1
0.529412 0.807843 0.921569 1
0.529412 0.807843 0.921569 1
0.529412 0.807843 0.921569 1
0.529412 0.807843 0.921569 1
0.529412 0.807843 0.921569 1
0.529412 0.807843 0.921569 1
0.529412 0.807843 0.921569 1
0.529412 0.807843 0.921569 1
0.529412 0.807843 0.921569 1
0.529412 0.807843 0.921569 1
0.529412 0.807843 0.921569 1
0.529412 0.807843 0.921569 1
0.529412 0.807843 0.921569 1
0.529412 0.807843 0.921569 1
0.529412 0.807843 0.921569 1
0.529412 0.807843 0.921569 1
0.529412 0.807843 0.921569 1
0.529412 0.807843 0.921569 1
0.529412 0.807843 0.921569 1
0.529412 0.807843 0.921569 1
0.529412 0.807843 0.921569 1
0.529412 0.807843 0.921569 1
0.529412 0.807843 0.921569 1
0.529412 0.807843 0.921569 1
0.529412 0.807843 0.921569 1
0.529412 0.807843 0.921569 1
0.529412 0.807843 0.921569 1
0.529412 0.807843 0.921569 1
0.529412 0.807843 0.921569 1
0.529412 0.807843 0.921569 1
0.529412 0.807843 0.921569 1
0.529412 0.807843 0.921569 1
0.529412 0.807843 0.921569 1
0.529412 0.807843 0.921569 1
0.529412 0.807843 0.921569 1
0.529412 0.807843 0.921569 1
0.529412 0.807843 0.921569 1
0.529412 0.807843 0.921569 1
0.529412 0.807843 0.921569 1
0.529412 0.807843 0.921569 1
0.529412 0.807843 0.921569 1
0.529412 0.807843 0.921569 1
0.529412 0.807843 0.921569 1
0.529412 0.807843 0.921569 1
0.529412 0.807843 0.921569 1
0.529412 0.807843 0.921569 1
0.529412 0.807843 0.921569 1
0.529412 0.807843 0.921569 1
0.529412 0.807843 0.921569 1
0.529412 0.807843 0.921569 1
0.529412 0.807843 0.921569 1
0.529412 0.807843 0.921569 1
0.529412 0.807843 0.921569 1
0.529412 0.807843 0.921569 1
0.529412 0.807843 0.921569 1
0.529412 0.807843 0.921569 1
0.529412 0.807843 0.921569 1
0.529412 0.807843 0.921569 1
0.529412 0.807843 0.921569 1
0.529412 0.807843 0.921569 1
0.529412 0.807843 0.921569 1
0.529412 0.807843 0.921569 1
0.529412 0.807843 0.921569 1
0.529412 0.807843 0.921569 1
0.529412 0.807843 0.921569 1
0.529412 0.807843 0.921569 1
0.529412 0.807843 0.921569 1
0.529412 0.807843 0.921569 1
0.529412 0.807843 0.921569 1
0.529412 0.807843 0.921569 1
0.529412 0.807843 0.921569 1
0.529412 0.807843 0.921569 1
0.529412 0.807843 0.921569 1
0.529412 0.807843 0.921569 1
0.529412 0.807843 0.921569 1
0.529412 0.807843 0.921569 1
0.529412 0.807843 0.921569 1
0.529412 0.807843 0.921569 1
0.529412 0.807843 0.921569 1
0.529412 0.807843 0.921569 1
0.529412 0.807843 0.921569 1
0.529412 0.807843 0.921569 1
0.529412 0.807843 0.921569 1
0.529412 0.807843 0.921569 1
0.529412 0.807843 0.921569 1
0.529412 0.807843 0.921569 1
0.529412 0.807843 0.921569 1
0.529412 0.807843 0.921569 1