# vtk DataFile Version 3.0
Gocad TSurf to VTK
ASCII
DATASET POLYDATA
POINTS 693 float
21569800.000 4576240.000 -1116.250
21569600.000 4576200.000 -1212.500
21569850.000 4576142.500 -1157.500
21569700.000 4576005.000 -1295.000
21570000.000 4576280.000 -1020.000
21569500.000 4576470.000 -1252.500
21569350.000 4576295.000 -1328.750
21569650.000 4576645.000 -1176.250
21569450.000 4576670.000 -1225.000
21569800.000 4576820.000 -1100.000
21569625.000 4576745.000 -1162.500
21569900.000 4576777.500 -1090.000
21570050.000 4576372.500 -1030.000
21569850.000 4576920.000 -1100.000
21570000.000 4576735.000 -1080.000
21569600.000 4577290.000 -1100.000
21569700.000 4577272.500 -1100.000
21569475.000 4577097.500 -1162.500
21569425.000 4577275.000 -1190.000
21569350.000 4576905.000 -1225.000
21569250.000 4577260.000 -1280.000
21569225.000 4576712.500 -1287.500
21569075.000 4577245.000 -1370.000
21569275.000 4576595.000 -1287.500
21569100.000 4576520.000 -1350.000
21569200.000 4576120.000 -1405.000
21569400.000 4576160.000 -1308.750
21568875.000 4576400.000 -1367.500
21568775.000 4576562.500 -1332.500
21568950.000 4576100.000 -1408.750
21568650.000 4576280.000 -1385.000
21569050.000 4575875.000 -1463.750
21568700.000 4576080.000 -1412.500
21569400.000 4575730.000 -1570.000
21569550.000 4575867.500 -1432.500
21569200.000 4575582.500 -1587.500
21568900.000 4575630.000 -1522.500
21569500.000 4575230.000 -1735.000
21569700.000 4575350.000 -1556.250
21569275.000 4575207.500 -1711.250
21569000.000 4575435.000 -1605.000
21569350.000 4575092.500 -1725.000
21569200.000 4574955.000 -1715.000
21569700.000 4574710.000 -1735.000
21569900.000 4574867.500 -1580.000
21569500.000 4574702.500 -1725.000
21569575.000 4574552.500 -1735.000
21569300.000 4574695.000 -1715.000
21569800.000 4573952.500 -1663.750
21569600.000 4573995.000 -1687.500
21570000.000 4573910.000 -1640.000
21569975.000 4574677.500 -1601.250
21569875.000 4573820.000 -1657.500
21569750.000 4573730.000 -1675.000
21569625.000 4573640.000 -1692.500
21569400.000 4574037.500 -1711.250
21569500.000 4573550.000 -1710.000
21569450.000 4574395.000 -1735.000
21569325.000 4574237.500 -1735.000
21569100.000 4574687.500 -1705.000
21569200.000 4574080.000 -1735.000
21568900.000 4574680.000 -1695.000
21569100.000 4573855.000 -1617.500
21569000.000 4574012.500 -1646.250
21569325.000 4573457.500 -1598.750
21569000.000 4573630.000 -1500.000
21568800.000 4573945.000 -1557.500
21569150.000 4573365.000 -1487.500
21568900.000 4573405.000 -1382.500
21568600.000 4573877.500 -1468.750
21568975.000 4573272.500 -1376.250
21568800.000 4573180.000 -1265.000
21568400.000 4573810.000 -1380.000
21568225.000 4573525.000 -1390.000
21568050.000 4573640.000 -1396.250
21568525.000 4573052.500 -1303.750
21568050.000 4573240.000 -1400.000
21568250.000 4572925.000 -1342.500
21567875.000 4572955.000 -1410.000
21567700.000 4573470.000 -1412.500
21567975.000 4572797.500 -1381.250
21567700.000 4572670.000 -1420.000
21567350.000 4573300.000 -1428.750
21567000.000 4573130.000 -1445.000
21567200.000 4573502.500 -1456.250
21567400.000 4573875.000 -1467.500
21566600.000 4573915.000 -1415.000
21566200.000 4573680.000 -1390.000
21567000.000 4574150.000 -1440.000
21566475.000 4574107.500 -1415.000
21566750.000 4574535.000 -1440.000
21565875.000 4574535.000 -1355.000
21565400.000 4574250.000 -1310.000
21566350.000 4574820.000 -1400.000
21565775.000 4574660.000 -1337.500
21566150.000 4575070.000 -1365.000
21565400.000 4574922.500 -1296.250
21564900.000 4574600.000 -1255.000
21565900.000 4575245.000 -1337.500
21565325.000 4575055.000 -1241.250
21565750.000 4575510.000 -1227.500
21565025.000 4575212.500 -1177.500
21564500.000 4574810.000 -1170.000
21565550.000 4575615.000 -1185.000
21564925.000 4575355.000 -1128.750
21565350.000 4575900.000 -1087.500
21564700.000 4575527.500 -1057.500
21564200.000 4575040.000 -1075.000
21565200.000 4576015.000 -1040.000
21565050.000 4576125.000 -1025.000
21564475.000 4575692.500 -1035.000
21565625.000 4576557.500 -1015.000
21565700.000 4576502.500 -1022.500
21564850.000 4576365.000 -1010.000
21565325.000 4576917.500 -992.500
21564375.000 4575812.500 -1027.500
21564650.000 4576490.000 -1025.000
21563900.000 4575260.000 -1045.000
21564075.000 4576000.000 -1050.000
21563800.000 4575020.000 -1041.250
21563650.000 4575117.500 -1083.750
21564025.000 4574855.000 -1063.750
21563700.000 4574780.000 -1037.500
21564150.000 4574777.500 -1061.250
21563850.000 4574670.000 -1052.500
21564375.000 4574605.000 -1132.500
21564100.000 4574515.000 -1047.500
21564475.000 4574550.000 -1146.250
21564250.000 4574400.000 -1095.000
21564775.000 4574392.500 -1210.000
21564450.000 4574290.000 -1122.500
21565150.000 4574130.000 -1251.250
21564900.000 4574010.000 -1192.500
21565300.000 4574040.000 -1298.750
21565200.000 4573830.000 -1287.500
21565425.000 4573960.000 -1330.000
21566025.000 4573532.500 -1390.000
21565450.000 4573670.000 -1350.000
21566175.000 4573445.000 -1387.500
21565850.000 4573385.000 -1390.000
21566775.000 4573032.500 -1428.750
21566550.000 4572935.000 -1412.500
21566925.000 4572935.000 -1400.000
21566850.000 4572740.000 -1355.000
21567450.000 4572590.000 -1381.250
21567200.000 4572510.000 -1342.500
21566950.000 4572430.000 -1303.750
21566775.000 4572545.000 -1310.000
21566700.000 4572350.000 -1265.000
21566325.000 4572837.500 -1396.250
21566150.000 4573210.000 -1385.000
21566100.000 4572740.000 -1380.000
21566125.000 4572975.000 -1382.500
21566125.000 4572565.000 -1300.000
21566000.000 4572602.500 -1276.250
21566575.000 4572272.500 -1213.750
21566150.000 4572390.000 -1220.000
21566450.000 4572195.000 -1162.500
21566175.000 4572215.000 -1140.000
21565900.000 4572465.000 -1172.500
21566325.000 4572117.500 -1111.250
21566200.000 4572040.000 -1060.000
21565800.000 4572327.500 -1068.750
21565700.000 4572190.000 -965.000
21565650.000 4572415.000 -1071.250
21565850.000 4571875.000 -1050.000
21565475.000 4571987.500 -978.750
21565500.000 4571710.000 -1040.000
21565000.000 4572390.000 -965.000
21564950.000 4572137.500 -978.750
21565125.000 4572565.000 -1071.250
21565600.000 4572640.000 -1177.500
21565000.000 4572645.000 -1040.000
21565250.000 4572740.000 -1177.500
21564400.000 4572580.000 -1020.000
21564550.000 4572787.500 -1081.250
21564800.000 4572175.000 -1012.500
21564350.000 4572317.500 -1053.750
21564900.000 4571885.000 -992.500
21565250.000 4571785.000 -992.500
21564600.000 4571960.000 -1060.000
21564850.000 4571632.500 -1006.250
21565025.000 4571582.500 -1006.250
21564400.000 4571745.000 -1107.500
21564300.000 4572055.000 -1087.500
21564800.000 4571380.000 -1020.000
21564200.000 4571530.000 -1155.000
21564250.000 4571792.500 -1121.250
21564225.000 4571302.500 -981.250
21563775.000 4571415.000 -1082.500
21563650.000 4571225.000 -942.500
21563200.000 4571750.000 -1255.000
21563025.000 4571580.000 -1157.500
21564075.000 4571845.000 -1145.000
21563325.000 4572010.000 -1220.000
21563950.000 4572160.000 -1135.000
21563175.000 4572055.000 -1233.750
21563450.000 4572270.000 -1185.000
21562500.000 4572227.500 -1263.750
21562700.000 4572475.000 -1232.500
21562300.000 4571980.000 -1295.000
21562325.000 4572280.000 -1267.500
21562350.000 4571752.500 -1187.500
21562850.000 4571410.000 -1060.000
21562250.000 4571807.500 -1218.750
21562200.000 4571635.000 -1142.500
21562100.000 4571870.000 -1240.000
21561600.000 4572150.000 -1295.000
21561575.000 4571997.500 -1240.000
21561800.000 4572407.500 -1267.500
21561675.000 4572440.000 -1253.750
21561750.000 4572730.000 -1212.500
21561075.000 4572575.000 -1242.500
21561350.000 4572820.000 -1205.000
21560800.000 4572330.000 -1280.000
21560875.000 4572185.000 -1232.500
21560725.000 4572255.000 -1232.500
21561475.000 4572050.000 -1243.750
21560950.000 4572040.000 -1185.000
21561550.000 4571845.000 -1185.000
21561900.000 4571760.000 -1185.000
21561350.000 4571950.000 -1192.500
21561525.000 4571692.500 -1130.000
21561700.000 4571650.000 -1130.000
21561225.000 4571850.000 -1141.250
21561025.000 4571895.000 -1137.500
21561500.000 4571540.000 -1075.000
21561100.000 4571750.000 -1090.000
21561250.000 4571397.500 -1041.250
21560950.000 4571555.000 -1052.500
21561275.000 4571332.500 -1031.250
21561000.000 4571255.000 -1007.500
21561725.000 4571145.000 -967.500
21561350.000 4571000.000 -945.000
21562100.000 4571290.000 -990.000
21562025.000 4570980.000 -873.750
21562150.000 4571462.500 -1066.250
21562450.000 4571297.500 -972.500
21562400.000 4571525.000 -1080.000
21562675.000 4571240.000 -962.500
21562925.000 4571185.000 -937.500
21562500.000 4571070.000 -865.000
21563350.000 4571300.000 -1010.000
21563075.000 4571147.500 -903.750
21561550.000 4570890.000 -882.500
21561075.000 4570800.000 -891.250
21560975.000 4570855.000 -922.500
21560600.000 4570710.000 -900.000
21561050.000 4571125.000 -987.500
21560825.000 4570917.500 -943.750
21560750.000 4571112.500 -973.750
21560800.000 4571360.000 -1015.000
21560650.000 4571165.000 -977.500
21560700.000 4571505.000 -1027.500
21560900.000 4571627.500 -1058.750
21560500.000 4571382.500 -996.250
21560400.000 4571645.000 -1027.500
21560350.000 4571452.500 -996.250
21560450.000 4571837.500 -1058.750
21560300.000 4571785.000 -1027.500
21560400.000 4571907.500 -1058.750
21560200.000 4571662.500 -996.250
21560100.000 4571540.000 -965.000
21560300.000 4571260.000 -965.000
21560025.000 4571125.000 -926.250
21559875.000 4571335.000 -926.250
21560025.000 4571097.500 -933.750
21559750.000 4570990.000 -887.500
21560025.000 4571080.000 -933.750
21559750.000 4570935.000 -902.500
21560175.000 4570862.500 -915.000
21559850.000 4570755.000 -890.000
21560500.000 4570970.000 -940.000
21560250.000 4570667.500 -885.000
21559900.000 4570625.000 -870.000
21559550.000 4570582.500 -855.000
21559525.000 4570647.500 -865.000
21559200.000 4570540.000 -840.000
21559750.000 4570900.000 -902.500
21559475.000 4570720.000 -871.250
21559475.000 4570772.500 -871.250
21559475.000 4570855.000 -848.750
21559200.000 4570720.000 -810.000
21559200.000 4570610.000 -840.000
[...]
POINT_DATA 693
COLOR_SCALARS GocadColor 4
0.819608 0.698116 0.549615 1
0.819608 0.698116 0.549615 1
0.819608 0.698116 0.549615 1
0.819608 0.698116 0.549615 1
0.819608 0.698116 0.549615 1
0.819608 0.698116 0.549615 1
0.819608 0.698116 0.549615 1
0.819608 0.698116 0.549615 1
0.819608 0.698116 0.549615 1
0.819608 0.698116 0.549615 1
0.819608 0.698116 0.549615 1
0.819608 0.698116 0.549615 1
0.819608 0.698116 0.549615 1
0.819608 0.698116 0.549615 1
0.819608 0.698116 0.549615 1
0.819608 0.698116 0.549615 1
0.819608 0.698116 0.549615 1
0.819608 0.698116 0.549615 1
0.819608 0.698116 0.549615 1
0.819608 0.698116 0.549615 1
0.819608 0.698116 0.549615 1
0.819608 0.698116 0.549615 1
0.819608 0.698116 0.549615 1
0.819608 0.698116 0.549615 1
0.819608 0.698116 0.549615 1
0.819608 0.698116 0.549615 1
0.819608 0.698116 0.549615 1
0.819608 0.698116 0.549615 1
0.819608 0.698116 0.549615 1
0.819608 0.698116 0.549615 1
0.819608 0.698116 0.549615 1
0.819608 0.698116 0.549615 1
0.819608 0.698116 0.549615 1
0.819608 0.698116 0.549615 1
0.819608 0.698116 0.549615 1
0.819608 0.698116 0.549615 1
0.819608 0.698116 0.549615 1
0.819608 0.698116 0.549615 1
0.819608 0.698116 0.549615 1
0.819608 0.698116 0.549615 1
0.819608 0.698116 0.549615 1
0.819608 0.698116 0.549615 1
0.819608 0.698116 0.549615 1
0.819608 0.698116 0.549615 1
0.819608 0.698116 0.549615 1
0.819608 0.698116 0.549615 1
0.819608 0.698116 0.549615 1
0.819608 0.698116 0.549615 1
0.819608 0.698116 0.549615 1
0.819608 0.698116 0.549615 1
0.819608 0.698116 0.549615 1
0.819608 0.698116 0.549615 1
0.819608 0.698116 0.549615 1
0.819608 0.698116 0.549615 1
0.819608 0.698116 0.549615 1
0.819608 0.698116 0.549615 1
0.819608 0.698116 0.549615 1
0.819608 0.698116 0.549615 1
0.819608 0.698116 0.549615 1
0.819608 0.698116 0.549615 1
0.819608 0.698116 0.549615 1
0.819608 0.698116 0.549615 1
0.819608 0.698116 0.549615 1
0.819608 0.698116 0.549615 1
0.819608 0.698116 0.549615 1
0.819608 0.698116 0.549615 1
0.819608 0.698116 0.549615 1
0.819608 0.698116 0.549615 1
0.819608 0.698116 0.549615 1
0.819608 0.698116 0.549615 1
0.819608 0.698116 0.549615 1
0.819608 0.698116 0.549615 1
0.819608 0.698116 0.549615 1
0.819608 0.698116 0.549615 1
0.819608 0.698116 0.549615 1
0.819608 0.698116 0.549615 1
0.819608 0.698116 0.549615 1
0.819608 0.698116 0.549615 1
0.819608 0.698116 0.549615 1
0.819608 0.698116 0.549615 1
0.819608 0.698116 0.549615 1
0.819608 0.698116 0.549615 1
0.819608 0.698116 0.549615 1
0.819608 0.698116 0.549615 1
0.819608 0.698116 0.549615 1
0.819608 0.698116 0.549615 1
0.819608 0.698116 0.549615 1
0.819608 0.698116 0.549615 1
0.819608 0.698116 0.549615 1
0.819608 0.698116 0.549615 1
0.819608 0.698116 0.549615 1
0.819608 0.698116 0.549615 1
0.819608 0.698116 0.549615 1
0.819608 0.698116 0.549615 1
0.819608 0.698116 0.549615 1
0.819608 0.698116 0.549615 1
0.819608 0.698116 0.549615 1
0.819608 0.698116 0.549615 1
0.819608 0.698116 0.549615 1
0.819608 0.698116 0.549615 1
0.819608 0.698116 0.549615 1
0.819608 0.698116 0.549615 1
0.819608 0.698116 0.549615 1
0.819608 0.698116 0.549615 1
0.819608 0.698116 0.549615 1
0.819608 0.698116 0.549615 1
0.819608 0.698116 0.549615 1
0.819608 0.698116 0.549615 1
0.819608 0.698116 0.549615 1
0.819608 0.698116 0.549615 1
0.819608 0.698116 0.549615 1
0.819608 0.698116 0.549615 1
0.819608 0.698116 0.549615 1
0.819608 0.698116 0.549615 1
0.819608 0.698116 0.549615 1
0.819608 0.698116 0.549615 1
0.819608 0.698116 0.549615 1
0.819608 0.698116 0.549615 1
0.819608 0.698116 0.549615 1
0.819608 0.698116 0.549615 1
0.819608 0.698116 0.549615 1
0.819608 0.698116 0.549615 1
0.819608 0.698116 0.549615 1
0.819608 0.698116 0.549615 1
0.819608 0.698116 0.549615 1
0.819608 0.698116 0.549615 1
0.819608 0.698116 0.549615 1
0.819608 0.698116 0.549615 1
0.819608 0.698116 0.549615 1
0.819608 0.698116 0.549615 1
0.819608 0.698116 0.549615 1
0.819608 0.698116 0.549615 1
0.819608 0.698116 0.549615 1
0.819608 0.698116 0.549615 1
0.819608 0.698116 0.549615 1
0.819608 0.698116 0.549615 1
0.819608 0.698116 0.549615 1
0.819608 0.698116 0.549615 1
0.819608 0.698116 0.549615 1
0.819608 0.698116 0.549615 1
0.819608 0.698116 0.549615 1
0.819608 0.698116 0.549615 1
0.819608 0.698116 0.549615 1
0.819608 0.698116 0.549615 1
0.819608 0.698116 0.549615 1
0.819608 0.698116 0.549615 1
0.819608 0.698116 0.549615 1
0.819608 0.698116 0.549615 1
0.819608 0.698116 0.549615 1
0.819608 0.698116 0.549615 1
0.819608 0.698116 0.549615 1
0.819608 0.698116 0.549615 1
0.819608 0.698116 0.549615 1
0.819608 0.698116 0.549615 1
0.819608 0.698116 0.549615 1
0.819608 0.698116 0.549615 1
0.819608 0.698116 0.549615 1
0.819608 0.698116 0.549615 1
0.819608 0.698116 0.549615 1
0.819608 0.698116 0.549615 1
0.819608 0.698116 0.549615 1
0.819608 0.698116 0.549615 1
0.819608 0.698116 0.549615 1
0.819608 0.698116 0.549615 1
0.819608 0.698116 0.549615 1
0.819608 0.698116 0.549615 1
0.819608 0.698116 0.549615 1
0.819608 0.698116 0.549615 1
0.819608 0.698116 0.549615 1
0.819608 0.698116 0.549615 1
0.819608 0.698116 0.549615 1
0.819608 0.698116 0.549615 1
0.819608 0.698116 0.549615 1
0.819608 0.698116 0.549615 1
0.819608 0.698116 0.549615 1
0.819608 0.698116 0.549615 1
0.819608 0.698116 0.549615 1
0.819608 0.698116 0.549615 1
0.819608 0.698116 0.549615 1
0.819608 0.698116 0.549615 1
0.819608 0.698116 0.549615 1
0.819608 0.698116 0.549615 1
0.819608 0.698116 0.549615 1
0.819608 0.698116 0.549615 1
0.819608 0.698116 0.549615 1
0.819608 0.698116 0.549615 1
0.819608 0.698116 0.549615 1
0.819608 0.698116 0.549615 1
0.819608 0.698116 0.549615 1
0.819608 0.698116 0.549615 1
0.819608 0.698116 0.549615 1
0.819608 0.698116 0.549615 1
0.819608 0.698116 0.549615 1
0.819608 0.698116 0.549615 1
0.819608 0.698116 0.549615 1
0.819608 0.698116 0.549615 1
0.819608 0.698116 0.549615 1
0.819608 0.698116 0.549615 1
0.819608 0.698116 0.549615 1
0.819608 0.698116 0.549615 1
0.819608 0.698116 0.549615 1
0.819608 0.698116 0.549615 1
0.819608 0.698116 0.549615 1
0.819608 0.698116 0.549615 1
0.819608 0.698116 0.549615 1
0.819608 0.698116 0.549615 1
0.819608 0.698116 0.549615 1
0.819608 0.698116 0.549615 1
0.819608 0.698116 0.549615 1
0.819608 0.698116 0.549615 1
0.819608 0.698116 0.549615 1
0.819608 0.698116 0.549615 1
0.819608 0.698116 0.549615 1
0.819608 0.698116 0.549615 1
0.819608 0.698116 0.549615 1
0.819608 0.698116 0.549615 1
0.819608 0.698116 0.549615 1
0.819608 0.698116 0.549615 1
0.819608 0.698116 0.549615 1
0.819608 0.698116 0.549615 1
0.819608 0.698116 0.549615 1
0.819608 0.698116 0.549615 1
0.819608 0.698116 0.549615 1
0.819608 0.698116 0.549615 1
0.819608 0.698116 0.549615 1
0.819608 0.698116 0.549615 1
0.819608 0.698116 0.549615 1
0.819608 0.698116 0.549615 1
0.819608 0.698116 0.549615 1
0.819608 0.698116 0.549615 1
0.819608 0.698116 0.549615 1
0.819608 0.698116 0.549615 1
0.819608 0.698116 0.549615 1
0.819608 0.698116 0.549615 1
0.819608 0.698116 0.549615 1
0.819608 0.698116 0.549615 1
0.819608 0.698116 0.549615 1
0.819608 0.698116 0.549615 1
0.819608 0.698116 0.549615 1
0.819608 0.698116 0.549615 1
0.819608 0.698116 0.549615 1
0.819608 0.698116 0.549615 1
0.819608 0.698116 0.549615 1
0.819608 0.698116 0.549615 1
0.819608 0.698116 0.549615 1
0.819608 0.698116 0.549615 1
0.819608 0.698116 0.549615 1
0.819608 0.698116 0.549615 1
0.819608 0.698116 0.549615 1
0.819608 0.698116 0.549615 1
0.819608 0.698116 0.549615 1
0.819608 0.698116 0.549615 1
0.819608 0.698116 0.549615 1
0.819608 0.698116 0.549615 1
0.819608 0.698116 0.549615 1
0.819608 0.698116 0.549615 1
0.819608 0.698116 0.549615 1
0.819608 0.698116 0.549615 1
0.819608 0.698116 0.549615 1
0.819608 0.698116 0.549615 1
0.819608 0.698116 0.549615 1
0.819608 0.698116 0.549615 1
0.819608 0.698116 0.549615 1
0.819608 0.698116 0.549615 1
0.819608 0.698116 0.549615 1
0.819608 0.698116 0.549615 1
0.819608 0.698116 0.549615 1
0.819608 0.698116 0.549615 1
0.819608 0.698116 0.549615 1
0.819608 0.698116 0.549615 1
0.819608 0.698116 0.549615 1
0.819608 0.698116 0.549615 1
0.819608 0.698116 0.549615 1
0.819608 0.698116 0.549615 1
0.819608 0.698116 0.549615 1
0.819608 0.698116 0.549615 1
0.819608 0.698116 0.549615 1
0.819608 0.698116 0.549615 1
0.819608 0.698116 0.549615 1
0.819608 0.698116 0.549615 1
0.819608 0.698116 0.549615 1
0.819608 0.698116 0.549615 1
0.819608 0.698116 0.549615 1
0.819608 0.698116 0.549615 1
0.819608 0.698116 0.549615 1
0.819608 0.698116 0.549615 1
0.819608 0.698116 0.549615 1
0.819608 0.698116 0.549615 1
0.819608 0.698116 0.549615 1
0.819608 0.698116 0.549615 1
0.819608 0.698116 0.549615 1
0.819608 0.698116 0.549615 1
0.819608 0.698116 0.549615 1
0.819608 0.698116 0.549615 1
0.819608 0.698116 0.549615 1
0.819608 0.698116 0.549615 1
0.819608 0.698116 0.549615 1
0.819608 0.698116 0.549615 1
0.819608 0.698116 0.549615 1
0.819608 0.698116 0.549615 1
0.819608 0.698116 0.549615 1
0.819608 0.698116 0.549615 1
0.819608 0.698116 0.549615 1
0.819608 0.698116 0.549615 1
0.819608 0.698116 0.549615 1
0.819608 0.698116 0.549615 1
0.819608 0.698116 0.549615 1
0.819608 0.698116 0.549615 1
0.819608 0.698116 0.549615 1
0.819608 0.698116 0.549615 1
0.819608 0.698116 0.549615 1
0.819608 0.698116 0.549615 1
0.819608 0.698116 0.549615 1
0.819608 0.698116 0.549615 1
0.819608 0.698116 0.549615 1
0.819608 0.698116 0.549615 1
0.819608 0.698116 0.549615 1
0.819608 0.698116 0.549615 1
0.819608 0.698116 0.549615 1
0.819608 0.698116 0.549615 1
0.819608 0.698116 0.549615 1
0.819608 0.698116 0.549615 1
0.819608 0.698116 0.549615 1
0.819608 0.698116 0.549615 1
0.819608 0.698116 0.549615 1
0.819608 0.698116 0.549615 1
0.819608 0.698116 0.549615 1
0.819608 0.698116 0.549615 1
0.819608 0.698116 0.549615 1
0.819608 0.698116 0.549615 1
0.819608 0.698116 0.549615 1
0.819608 0.698116 0.549615 1
0.819608 0.698116 0.549615 1
0.819608 0.698116 0.549615 1
0.819608 0.698116 0.549615 1
0.819608 0.698116 0.549615 1
0.819608 0.698116 0.549615 1
0.819608 0.698116 0.549615 1
0.819608 0.698116 0.549615 1
0.819608 0.698116 0.549615 1
0.819608 0.698116 0.549615 1
0.819608 0.698116 0.549615 1
0.819608 0.698116 0.549615 1
0.819608 0.698116 0.549615 1
0.819608 0.698116 0.549615 1
0.819608 0.698116 0.549615 1
0.819608 0.698116 0.549615 1
0.819608 0.698116 0.549615 1
0.819608 0.698116 0.549615 1
0.819608 0.698116 0.549615 1
0.819608 0.698116 0.549615 1
0.819608 0.698116 0.549615 1
0.819608 0.698116 0.549615 1
0.819608 0.698116 0.549615 1
0.819608 0.698116 0.549615 1
0.819608 0.698116 0.549615 1
0.819608 0.698116 0.549615 1
0.819608 0.698116 0.549615 1
0.819608 0.698116 0.549615 1
0.819608 0.698116 0.549615 1
0.819608 0.698116 0.549615 1
0.819608 0.698116 0.549615 1
0.819608 0.698116 0.549615 1
0.819608 0.698116 0.549615 1
0.819608 0.698116 0.549615 1
0.819608 0.698116 0.549615 1
0.819608 0.698116 0.549615 1
0.819608 0.698116 0.549615 1
0.819608 0.698116 0.549615 1
0.819608 0.698116 0.549615 1
0.819608 0.698116 0.549615 1
0.819608 0.698116 0.549615 1
0.819608 0.698116 0.549615 1
0.819608 0.698116 0.549615 1
0.819608 0.698116 0.549615 1
0.819608 0.698116 0.549615 1
0.819608 0.698116 0.549615 1
0.819608 0.698116 0.549615 1
0.819608 0.698116 0.549615 1
0.819608 0.698116 0.549615 1
0.819608 0.698116 0.549615 1
0.819608 0.698116 0.549615 1
0.819608 0.698116 0.549615 1
0.819608 0.698116 0.549615 1
0.819608 0.698116 0.549615 1
0.819608 0.698116 0.549615 1
0.819608 0.698116 0.549615 1
0.819608 0.698116 0.549615 1
0.819608 0.698116 0.549615 1
0.819608 0.698116 0.549615 1
0.819608 0.698116 0.549615 1
0.819608 0.698116 0.549615 1
0.819608 0.698116 0.549615 1
0.819608 0.698116 0.549615 1
0.819608 0.698116 0.549615 1
0.819608 0.698116 0.549615 1
0.819608 0.698116 0.549615 1
0.819608 0.698116 0.549615 1
0.819608 0.698116 0.549615 1
0.819608 0.698116 0.549615 1
0.819608 0.698116 0.549615 1
0.819608 0.698116 0.549615 1
0.819608 0.698116 0.549615 1
0.819608 0.698116 0.549615 1
0.819608 0.698116 0.549615 1
0.819608 0.698116 0.549615 1
0.819608 0.698116 0.549615 1
0.819608 0.698116 0.549615 1
0.819608 0.698116 0.549615 1
0.819608 0.698116 0.549615 1
0.819608 0.698116 0.549615 1
0.819608 0.698116 0.549615 1
0.819608 0.698116 0.549615 1
0.819608 0.698116 0.549615 1
0.819608 0.698116 0.549615 1
0.819608 0.698116 0.549615 1
0.819608 0.698116 0.549615 1
0.819608 0.698116 0.549615 1
0.819608 0.698116 0.549615 1
0.819608 0.698116 0.549615 1
0.819608 0.698116 0.549615 1
0.819608 0.698116 0.549615 1
0.819608 0.698116 0.549615 1
0.819608 0.698116 0.549615 1
0.819608 0.698116 0.549615 1
0.819608 0.698116 0.549615 1
0.819608 0.698116 0.549615 1
0.819608 0.698116 0.549615 1
0.819608 0.698116 0.549615 1
0.819608 0.698116 0.549615 1
0.819608 0.698116 0.549615 1
0.819608 0.698116 0.549615 1
0.819608 0.698116 0.549615 1
0.819608 0.698116 0.549615 1
0.819608 0.698116 0.549615 1
0.819608 0.698116 0.549615 1
0.819608 0.698116 0.549615 1
0.819608 0.698116 0.549615 1
0.819608 0.698116 0.549615 1
0.819608 0.698116 0.549615 1
0.819608 0.698116 0.549615 1
0.819608 0.698116 0.549615 1
0.819608 0.698116 0.549615 1
0.819608 0.698116 0.549615 1
0.819608 0.698116 0.549615 1
0.819608 0.698116 0.549615 1
0.819608 0.698116 0.549615 1
0.819608 0.698116 0.549615 1
0.819608 0.698116 0.549615 1
0.819608 0.698116 0.549615 1
0.819608 0.698116 0.549615 1
0.819608 0.698116 0.549615 1
0.819608 0.698116 0.549615 1
0.819608 0.698116 0.549615 1
0.819608 0.698116 0.549615 1
0.819608 0.698116 0.549615 1
0.819608 0.698116 0.549615 1
0.819608 0.698116 0.549615 1
0.819608 0.698116 0.549615 1
0.819608 0.698116 0.549615 1
0.819608 0.698116 0.549615 1
0.819608 0.698116 0.549615 1
0.819608 0.698116 0.549615 1
0.819608 0.698116 0.549615 1
0.819608 0.698116 0.549615 1
0.819608 0.698116 0.549615 1
0.819608 0.698116 0.549615 1
0.819608 0.698116 0.549615 1
0.819608 0.698116 0.549615 1
0.819608 0.698116 0.549615 1
0.819608 0.698116 0.549615 1
0.819608 0.698116 0.549615 1
0.819608 0.698116 0.549615 1
0.819608 0.698116 0.549615 1
0.819608 0.698116 0.549615 1
0.819608 0.698116 0.549615 1
0.819608 0.698116 0.549615 1
0.819608 0.698116 0.549615 1
0.819608 0.698116 0.549615 1
0.819608 0.698116 0.549615 1
0.819608 0.698116 0.549615 1
0.819608 0.698116 0.549615 1
0.819608 0.698116 0.549615 1
0.819608 0.698116 0.549615 1
0.819608 0.698116 0.549615 1
0.819608 0.698116 0.549615 1
0.819608 0.698116 0.549615 1
0.819608 0.698116 0.549615 1
0.819608 0.698116 0.549615 1
0.819608 0.698116 0.549615 1
0.819608 0.698116 0.549615 1
0.819608 0.698116 0.549615 1
0.819608 0.698116 0.549615 1
0.819608 0.698116 0.549615 1
0.819608 0.698116 0.549615 1
0.819608 0.698116 0.549615 1
0.819608 0.698116 0.549615 1
0.819608 0.698116 0.549615 1
0.819608 0.698116 0.549615 1
0.819608 0.698116 0.549615 1
0.819608 0.698116 0.549615 1
0.819608 0.698116 0.549615 1
0.819608 0.698116 0.549615 1
0.819608 0.698116 0.549615 1
0.819608 0.698116 0.549615 1
0.819608 0.698116 0.549615 1
0.819608 0.698116 0.549615 1
0.819608 0.698116 0.549615 1
0.819608 0.698116 0.549615 1
0.819608 0.698116 0.549615 1
0.819608 0.698116 0.549615 1
0.819608 0.698116 0.549615 1
0.819608 0.698116 0.549615 1
0.819608 0.698116 0.549615 1
0.819608 0.698116 0.549615 1
0.819608 0.698116 0.549615 1
0.819608 0.698116 0.549615 1
0.819608 0.698116 0.549615 1
0.819608 0.698116 0.549615 1
0.819608 0.698116 0.549615 1
0.819608 0.698116 0.549615 1
0.819608 0.698116 0.549615 1
0.819608 0.698116 0.549615 1
0.819608 0.698116 0.549615 1
0.819608 0.698116 0.549615 1
0.819608 0.698116 0.549615 1
0.819608 0.698116 0.549615 1
0.819608 0.698116 0.549615 1
0.819608 0.698116 0.549615 1
0.819608 0.698116 0.549615 1
0.819608 0.698116 0.549615 1
0.819608 0.698116 0.549615 1
0.819608 0.698116 0.549615 1
0.819608 0.698116 0.549615 1
0.819608 0.698116 0.549615 1
0.819608 0.698116 0.549615 1
0.819608 0.698116 0.549615 1
0.819608 0.698116 0.549615 1
0.819608 0.698116 0.549615 1
0.819608 0.698116 0.549615 1
0.819608 0.698116 0.549615 1
0.819608 0.698116 0.549615 1
0.819608 0.698116 0.549615 1
0.819608 0.698116 0.549615 1
0.819608 0.698116 0.549615 1
0.819608 0.698116 0.549615 1
0.819608 0.698116 0.549615 1
0.819608 0.698116 0.549615 1
0.819608 0.698116 0.549615 1
0.819608 0.698116 0.549615 1
0.819608 0.698116 0.549615 1
0.819608 0.698116 0.549615 1
0.819608 0.698116 0.549615 1
0.819608 0.698116 0.549615 1
0.819608 0.698116 0.549615 1
0.819608 0.698116 0.549615 1
0.819608 0.698116 0.549615 1
0.819608 0.698116 0.549615 1
0.819608 0.698116 0.549615 1
0.819608 0.698116 0.549615 1
0.819608 0.698116 0.549615 1
0.819608 0.698116 0.549615 1
0.819608 0.698116 0.549615 1
0.819608 0.698116 0.549615 1
0.819608 0.698116 0.549615 1
0.819608 0.698116 0.549615 1
0.819608 0.698116 0.549615 1
0.819608 0.698116 0.549615 1
0.819608 0.698116 0.549615 1
0.819608 0.698116 0.549615 1
0.819608 0.698116 0.549615 1
0.819608 0.698116 0.549615 1
0.819608 0.698116 0.549615 1
0.819608 0.698116 0.549615 1
0.819608 0.698116 0.549615 1
0.819608 0.698116 0.549615 1
0.819608 0.698116 0.549615 1
0.819608 0.698116 0.549615 1
0.819608 0.698116 0.549615 1
0.819608 0.698116 0.549615 1
0.819608 0.698116 0.549615 1
0.819608 0.698116 0.549615 1
0.819608 0.698116 0.549615 1
0.819608 0.698116 0.549615 1
0.819608 0.698116 0.549615 1
0.819608 0.698116 0.549615 1
0.819608 0.698116 0.549615 1
0.819608 0.698116 0.549615 1
0.819608 0.698116 0.549615 1
0.819608 0.698116 0.549615 1
0.819608 0.698116 0.549615 1
0.819608 0.698116 0.549615 1
0.819608 0.698116 0.549615 1
0.819608 0.698116 0.549615 1
0.819608 0.698116 0.549615 1
0.819608 0.698116 0.549615 1
0.819608 0.698116 0.549615 1
0.819608 0.698116 0.549615 1
0.819608 0.698116 0.549615 1
0.819608 0.698116 0.549615 1
0.819608 0.698116 0.549615 1
0.819608 0.698116 0.549615 1
0.819608 0.698116 0.549615 1
0.819608 0.698116 0.549615 1
0.819608 0.698116 0.549615 1
0.819608 0.698116 0.549615 1
0.819608 0.698116 0.549615 1
0.819608 0.698116 0.549615 1
0.819608 0.698116 0.549615 1
0.819608 0.698116 0.549615 1
0.819608 0.698116 0.549615 1
0.819608 0.698116 0.549615 1
0.819608 0.698116 0.549615 1
0.819608 0.698116 0.549615 1
0.819608 0.698116 0.549615 1
0.819608 0.698116 0.549615 1
0.819608 0.698116 0.549615 1
0.819608 0.698116 0.549615 1
0.819608 0.698116 0.549615 1
0.819608 0.698116 0.549615 1
0.819608 0.698116 0.549615 1
0.819608 0.698116 0.549615 1
0.819608 0.698116 0.549615 1
0.819608 0.698116 0.549615 1
0.819608 0.698116 0.549615 1
0.819608 0.698116 0.549615 1
0.819608 0.698116 0.549615 1
0.819608 0.698116 0.549615 1
0.819608 0.698116 0.549615 1
0.819608 0.698116 0.549615 1
0.819608 0.698116 0.549615 1
0.819608 0.698116 0.549615 1
0.819608 0.698116 0.549615 1
0.819608 0.698116 0.549615 1
0.819608 0.698116 0.549615 1
0.819608 0.698116 0.549615 1
0.819608 0.698116 0.549615 1
0.819608 0.698116 0.549615 1
0.819608 0.698116 0.549615 1
0.819608 0.698116 0.549615 1
0.819608 0.698116 0.549615 1
0.819608 0.698116 0.549615 1
0.819608 0.698116 0.549615 1
0.819608 0.698116 0.549615 1
0.819608 0.698116 0.549615 1
0.819608 0.698116 0.549615 1
0.819608 0.698116 0.549615 1
0.819608 0.698116 0.549615 1
0.819608 0.698116 0.549615 1
0.819608 0.698116 0.549615 1
0.819608 0.698116 0.549615 1
0.819608 0.698116 0.549615 1
0.819608 0.698116 0.549615 1
0.819608 0.698116 0.549615 1
0.819608 0.698116 0.549615 1
0.819608 0.698116 0.549615 1
0.819608 0.698116 0.549615 1
0.819608 0.698116 0.549615 1
0.819608 0.698116 0.549615 1
0.819608 0.698116 0.549615 1
0.819608 0.698116 0.549615 1
0.819608 0.698116 0.549615 1
0.819608 0.698116 0.549615 1
0.819608 0.698116 0.549615 1
0.819608 0.698116 0.549615 1
0.819608 0.698116 0.549615 1
0.819608 0.698116 0.549615 1
0.819608 0.698116 0.549615 1
0.819608 0.698116 0.549615 1
0.819608 0.698116 0.549615 1
0.819608 0.698116 0.549615 1
0.819608 0.698116 0.549615 1
0.819608 0.698116 0.549615 1
0.819608 0.698116 0.549615 1
0.819608 0.698116 0.549615 1
0.819608 0.698116 0.549615 1
0.819608 0.698116 0.549615 1
0.819608 0.698116 0.549615 1
0.819608 0.698116 0.549615 1
0.819608 0.698116 0.549615 1
0.819608 0.698116 0.549615 1
0.819608 0.698116 0.549615 1
0.819608 0.698116 0.549615 1
0.819608 0.698116 0.549615 1
0.819608 0.698116 0.549615 1
0.819608 0.698116 0.549615 1
0.819608 0.698116 0.549615 1
0.819608 0.698116 0.549615 1