# vtk DataFile Version 3.0
Gocad TSurf to VTK
ASCII
DATASET POLYDATA
POINTS 58 float
21580100.000 4569730.000 -1305.000
21580000.000 4569615.000 -1210.000
21579600.000 4569627.500 -728.750
21579900.000 4569500.000 -1115.000
21580200.000 4569845.000 -1400.000
21579850.000 4570020.000 -802.500
21579575.000 4570060.000 -525.000
21580275.000 4570062.500 -1372.500
21580250.000 4570165.000 -1250.000
21580300.000 4569960.000 -1495.000
21580025.000 4570195.000 -903.750
21580225.000 4570267.500 -1127.500
21580200.000 4570370.000 -1005.000
21579600.000 4570190.000 -500.000
21580050.000 4570445.000 -795.000
21579900.000 4570520.000 -585.000
21579550.000 4570420.000 -312.500
21579500.000 4570275.000 -291.250
21579750.000 4570595.000 -375.000
21579600.000 4570670.000 -165.000
21579500.000 4570650.000 -125.000
21579300.000 4570445.000 126.250
21579400.000 4570360.000 -82.500
21579200.000 4570530.000 335.000
21579150.000 4570382.500 345.000
21579150.000 4570382.500 345.000
21579000.000 4569940.000 375.000
21579050.000 4570087.500 365.000
21579250.000 4569805.000 -97.500
21578900.000 4569795.000 386.250
21578700.000 4569505.000 408.750
21578600.000 4569360.000 420.000
21579200.000 4569410.000 -332.500
21579500.000 4569452.500 -768.750
21578675.000 4569307.500 291.250
21578700.000 4568840.000 -32.500
21578550.000 4569265.000 420.000
21578500.000 4569170.000 420.000
21578500.000 4569165.000 420.000
21578450.000 4569075.000 420.000
21578425.000 4568867.500 322.500
21578400.000 4568970.000 420.000
21578475.000 4568640.000 127.500
21578600.000 4568685.000 -1.250
21578275.000 4568812.500 443.750
21578150.000 4568655.000 467.500
21578101.656 4568594.090 476.685
21578050.953 4568505.719 470.273
21578047.109 4568499.012 469.786
21578500.000 4568530.000 30.000
21577968.266 4568361.617 459.818
21578900.000 4568660.000 -265.000
21578900.000 4569027.500 -137.500
21579050.000 4568840.000 -407.500
21579200.000 4569020.000 -550.000
21579150.000 4568870.000 -477.500
21579400.000 4569080.000 -690.000
21579650.000 4569290.000 -902.500

POLYGONS 78 312
3 35 43 42
3 30 28 31
3 3 33 2
3 44 40 42
3 38 37 39
3 12 11 10
3 13 26 17
3 40 35 42
3 48 49 50
3 34 37 36
3 57 56 54
3 21 22 24
3 54 52 32
3 7 9 4
3 20 19 16
3 6 10 5
3 21 24 23
3 43 51 49
3 12 13 14
3 37 38 36
3 55 54 56
3 5 2 6
3 17 24 22
3 39 37 34
3 46 42 47
3 34 35 39
3 36 31 34
3 29 26 28
3 51 43 52
3 26 13 28
3 27 24 26
3 22 21 16
3 54 53 52
3 32 31 28
3 15 13 16
3 55 53 54
3 55 51 53
3 44 41 40
3 18 15 16
3 13 10 6
3 13 17 16
3 0 1 2
3 8 7 5
3 5 4 2
3 33 57 54
3 35 40 39
3 21 20 16
3 35 34 32
3 8 5 10
3 45 44 42
3 26 24 17
3 43 49 42
3 3 57 33
3 33 54 32
3 2 4 0
3 32 28 33
3 40 41 39
3 43 35 52
3 30 29 28
3 34 31 32
3 13 12 10
3 6 2 33
3 22 16 17
3 13 6 28
3 7 4 5
3 1 3 2
3 42 46 45
3 14 13 15
3 53 51 52
3 42 48 47
3 25 24 27
3 23 20 21
3 23 24 25
3 52 35 32
3 19 18 16
3 11 8 10
3 42 49 48
3 28 6 33

POINT_DATA 58
COLOR_SCALARS GocadColor 4
0 1 0.48333 1
0 1 0.48333 1
0 1 0.48333 1
0 1 0.48333 1
0 1 0.48333 1
0 1 0.48333 1
0 1 0.48333 1
0 1 0.48333 1
0 1 0.48333 1
0 1 0.48333 1
0 1 0.48333 1
0 1 0.48333 1
0 1 0.48333 1
0 1 0.48333 1
0 1 0.48333 1
0 1 0.48333 1
0 1 0.48333 1
0 1 0.48333 1
0 1 0.48333 1
0 1 0.48333 1
0 1 0.48333 1
0 1 0.48333 1
0 1 0.48333 1
0 1 0.48333 1
0 1 0.48333 1
0 1 0.48333 1
0 1 0.48333 1
0 1 0.48333 1
0 1 0.48333 1
0 1 0.48333 1
0 1 0.48333 1
0 1 0.48333 1
0 1 0.48333 1
0 1 0.48333 1
0 1 0.48333 1
0 1 0.48333 1
0 1 0.48333 1
0 1 0.48333 1
0 1 0.48333 1
0 1 0.48333 1
0 1 0.48333 1
0 1 0.48333 1
0 1 0.48333 1
0 1 0.48333 1
0 1 0.48333 1
0 1 0.48333 1
0 1 0.48333 1
0 1 0.48333 1
0 1 0.48333 1
0 1 0.48333 1
0 1 0.48333 1
0 1 0.48333 1
0 1 0.48333 1
0 1 0.48333 1
0 1 0.48333 1
0 1 0.48333 1
0 1 0.48333 1
0 1 0.48333 1

