# vtk DataFile Version 3.0
Gocad TSurf to VTK
ASCII
DATASET POLYDATA
POINTS 200 float
21569575.000 4583230.000 117.500
21569650.000 4583312.500 -88.750
21569650.000 4583340.000 25.000
21569700.000 4583395.000 -112.500
21569600.000 4583230.000 -65.000
21569600.000 4583420.000 -175.000
21569500.656 4583120.961 209.192
21569500.297 4583120.328 209.171
21569500.109 4583120.445 209.144
21569525.000 4583222.500 13.750
21569525.000 4583280.000 -55.000
21569456.219 4583146.836 202.916
21569450.000 4583150.570 202.035
21569450.000 4583215.000 92.500
21569450.000 4583330.000 -45.000
21569412.125 4583173.336 196.661
21569411.344 4583173.805 196.549
21569384.313 4583189.789 193.151
21569375.000 4583207.500 171.250
21569375.000 4583380.000 -35.000
21569367.797 4583199.570 191.072
21569357.375 4583205.734 189.761
21569300.000 4583430.000 -25.000
21569323.141 4583236.063 185.343
21569300.000 4583254.609 184.708
21569234.641 4583261.195 181.832
21569189.688 4583264.531 181.287
21569175.000 4583265.617 181.109
21569175.000 4583415.000 2.500
21569200.000 4583460.000 -28.750
21569088.047 4583272.063 180.055
21569050.000 4583285.000 167.500
21569050.000 4583400.000 30.000
21569050.000 4583278.945 179.612
21569026.781 4583283.141 179.341
21568925.000 4583327.500 126.250
21568925.000 4583301.547 178.155
21568860.250 4583313.258 177.400
21568800.000 4583370.000 85.000
21568925.000 4583385.000 57.500
21568800.000 4583324.148 176.698
21568725.750 4583364.430 175.948
21568700.000 4583378.406 175.688
21568700.000 4583415.000 102.500
21568700.000 4583445.000 75.000
21568617.313 4583423.266 174.853
21568600.000 4583460.000 120.000
21568600.000 4583432.664 174.678
21568600.000 4583520.000 65.000
21568500.000 4583505.000 137.500
21568650.000 4583610.000 2.500
21568525.000 4583640.000 23.750
21568775.000 4583580.000 -18.750
21568700.000 4583700.000 2.500
21568600.000 4583775.000 23.750
21568800.000 4583625.000 -18.750
21568800.000 4583857.500 -18.750
21568900.000 4583550.000 -40.000
21568900.000 4583860.000 -40.000
21569000.000 4583817.500 -73.750
21569025.000 4583895.000 -70.000
21569000.000 4583585.000 -73.750
21569100.000 4583775.000 -107.500
21569000.000 4583520.000 -36.250
21569100.000 4583490.000 -32.500
21569100.000 4583620.000 -107.500
21569200.000 4583655.000 -141.250
21569200.000 4583732.500 -141.250
21569300.000 4583690.000 -175.000
21569375.000 4583482.500 -45.000
21569375.000 4583677.500 -157.500
21569375.000 4583427.500 -62.500
21569450.000 4583425.000 -100.000
21569525.000 4583422.500 -137.500
21569450.000 4583535.000 -65.000
21569525.000 4583587.500 -85.000
21569600.000 4583640.000 -105.000
21569525.000 4583652.500 -122.500
21569650.000 4583455.000 -171.250
21569650.000 4583620.000 -118.750
21569700.000 4583490.000 -167.500
21569750.000 4583477.500 -136.250
21569750.000 4583525.000 -163.750
21569725.000 4583450.000 -67.500
21569800.000 4583560.000 -160.000
21569750.000 4583580.000 -146.250
21569700.000 4583600.000 -132.500
21569825.000 4583722.500 18.750
21569750.000 4583695.000 -22.500
21569900.000 4583750.000 60.000
21569850.000 4583780.000 52.500
21569800.000 4583810.000 45.000
21569925.000 4583930.000 105.000
21569850.000 4583910.000 80.000
21570000.000 4583950.000 130.000
21569925.000 4583992.500 115.000
21570000.000 4584187.500 216.250
21569900.000 4584165.000 167.500
21570100.000 4584210.000 265.000
21570025.000 4584302.500 231.250
21570086.453 4584237.555 265.000
21570025.000 4584347.289 256.445
21570013.750 4584367.375 254.880
21569950.000 4584395.000 197.500
21569950.000 4584481.227 246.004
21569800.000 4584142.500 118.750
21569875.000 4584487.500 163.750
21569850.000 4584035.000 100.000
21569775.000 4584077.500 85.000
21569775.000 4583890.000 55.000
21569750.000 4583840.000 37.500
21569700.000 4583870.000 30.000
21569675.000 4583667.500 -63.750
21569550.000 4583730.000 -118.750
21569625.000 4583902.500 -17.500
21569500.000 4583820.000 -132.500
21569625.000 4584090.000 12.500
21569550.000 4584060.000 -45.000
21569700.000 4584120.000 70.000
21569625.000 4584140.000 53.750
21569800.000 4584580.000 130.000
21569863.266 4584653.813 243.885
21569625.000 4584205.000 73.750
21569700.000 4584550.000 118.750
21569550.000 4584290.000 77.500
21569725.000 4584602.500 160.000
21569650.000 4584625.000 190.000
21569725.000 4584740.977 237.892
21569667.281 4584712.172 235.041
21569737.984 4584747.453 238.533
21569800.000 4584778.391 241.597
21569650.000 4584703.555 234.188
21569600.875 4584679.047 231.761
21569575.000 4584666.141 230.484
21569575.000 4584647.500 220.000
21569551.672 4584654.500 229.331
21569600.000 4584520.000 107.500
21569500.000 4584490.000 96.250
21569475.000 4584375.000 81.250
21569507.188 4584644.516 227.200
21569500.000 4584642.867 226.827
21569400.000 4584460.000 85.000
21569485.500 4584639.555 226.076
21569400.000 4584200.000 5.000
21569475.000 4584180.000 21.250
21569325.000 4584255.000 52.500
21569300.000 4584200.000 18.750
21569325.000 4584450.000 112.500
21569250.000 4584310.000 100.000
21569390.406 4584587.367 220.430
21569301.672 4584538.664 215.161
21569400.000 4584592.625 220.999
21569295.328 4584535.180 214.784
21569250.000 4584440.000 140.000
21569204.781 4584485.492 209.408
21569175.000 4584365.000 147.500
21569100.000 4584200.000 46.250
21569175.000 4584430.000 167.500
21569100.000 4584420.000 195.000
21569200.000 4584482.500 208.750
21569000.000 4584200.000 60.000
21568950.000 4584307.500 181.250
21568875.000 4584142.500 80.000
21568800.000 4584195.000 167.500
21568750.000 4584085.000 100.000
21568800.000 4583887.500 5.000
21568650.000 4584082.500 153.750
21568625.000 4584027.500 120.000
21568700.000 4583915.000 50.000
21568500.000 4583970.000 140.000
21568600.000 4583942.500 95.000
21568500.000 4583960.000 140.000
21568600.000 4583935.000 95.000
21568500.000 4583850.000 45.000
21568600.000 4583852.500 23.750
21568700.000 4583910.000 50.000
21568700.000 4583855.000 2.500
21568800.000 4583885.000 5.000
21568400.000 4583670.000 45.000
21568500.000 4583595.000 55.000
21568400.000 4583550.000 155.000
21568500.000 4583487.500 172.500
21568507.094 4583483.070 173.740
21569100.000 4584150.000 5.000
21569150.000 4583930.000 -100.000
21569200.000 4584100.000 -50.000
21569275.000 4583965.000 -130.000
21569400.000 4584000.000 -160.000
21569300.000 4584050.000 -105.000
21569450.000 4583910.000 -146.250
21569475.000 4583967.500 -112.500
21569550.000 4583935.000 -65.000
21569450.000 4583665.000 -140.000
21569475.000 4584030.000 -102.500
21569550.000 4584160.000 37.500
21569200.000 4584200.000 32.500
21569864.766 4584650.867 243.939
21569875.000 4584630.023 243.921
21569934.313 4584509.250 243.815
21569934.313 4584509.250 243.820

POLYGONS 329 1316
3 44 43 46
3 68 66 67
3 180 178 179
3 22 68 69
3 102 103 104
3 76 5 75
3 175 176 174
3 134 137 135
3 125 131 128
3 55 57 52
3 158 160 161
3 29 64 65
3 68 187 189
3 32 64 28
3 51 50 48
3 42 43 38
3 166 167 169
3 197 106 196
3 68 67 186
3 160 158 155
3 173 171 172
3 174 176 54
3 73 72 74
3 89 84 87
3 54 51 173
3 111 114 116
3 94 95 96
3 62 59 60
3 49 181 180
3 170 169 167
3 147 148 153
3 110 111 109
3 84 83 81
3 75 192 77
3 51 48 179
3 136 124 138
3 79 76 112
3 72 71 69
3 71 22 69
3 117 191 193
3 84 82 85
3 88 91 87
3 5 76 78
3 84 85 87
3 94 89 92
3 49 46 181
3 120 127 129
3 50 51 54
3 120 129 130
3 195 185 183
3 86 79 112
3 58 57 55
3 76 77 113
3 89 87 90
3 75 73 74
3 93 109 107
3 32 31 35
3 77 192 113
3 4 5 1
3 74 72 69
3 7 4 6
3 18 22 19
3 138 141 137
3 65 62 67
3 24 25 22
3 37 40 38
3 59 58 60
3 101 99 102
3 120 118 122
3 120 122 123
3 50 52 44
3 97 103 99
3 126 132 131
3 32 63 64
3 78 79 80
3 166 164 167
3 76 111 112
3 141 145 147
3 146 185 195
3 97 105 103
3 123 122 124
3 112 110 88
3 72 14 19
3 32 35 39
3 19 22 71
3 44 38 43
3 80 86 82
3 38 57 39
3 193 143 144
3 153 159 154
3 69 70 74
3 97 107 105
3 8 11 9
3 65 64 61
3 162 160 58
3 22 28 29
3 106 120 121
3 144 138 124
3 191 189 190
3 153 154 152
3 13 14 9
3 22 29 66
3 66 29 65
3 28 31 32
3 172 174 173
3 190 187 193
3 155 158 157
3 114 113 115
3 73 10 14
3 193 144 117
3 177 176 175
3 192 115 113
3 99 103 102
3 105 118 106
3 30 31 28
3 194 144 124
3 74 70 192
3 93 91 109
3 123 124 136
3 111 118 108
3 143 187 188
3 141 143 145
3 165 175 168
3 120 125 127
3 121 120 130
3 56 58 55
3 137 134 136
3 161 160 162
3 89 90 92
3 156 155 148
3 176 56 53
3 0 4 1
3 55 52 53
3 50 44 48
3 99 100 98
3 87 85 88
3 195 183 156
3 164 162 165
3 147 150 149
3 41 42 38
3 52 57 38
3 82 86 85
3 16 17 13
3 179 49 180
3 184 62 60
3 61 57 59
3 172 171 170
3 39 57 63
3 63 57 61
3 114 115 191
3 174 54 173
3 5 10 73
3 143 188 146
3 74 192 75
3 147 145 148
3 140 141 142
3 192 70 115
3 137 139 135
3 21 22 18
3 5 73 75
3 39 63 32
3 64 63 61
3 147 153 152
3 119 194 122
3 91 110 109
3 17 18 13
3 191 190 193
3 20 21 18
3 187 143 193
3 13 19 14
3 153 157 159
3 98 96 99
3 136 126 123
3 69 68 70
3 3 78 80
3 168 175 172
3 167 164 168
3 153 148 155
3 94 92 95
3 136 138 137
3 186 67 184
3 70 189 115
3 8 9 4
3 23 24 22
3 134 135 133
3 72 19 71
3 26 27 22
3 76 75 77
3 52 38 44
3 103 106 198
3 109 111 108
3 114 191 117
3 27 30 28
3 92 93 95
3 116 194 119
3 105 106 103
3 143 146 145
3 27 28 22
3 109 108 107
3 92 90 93
3 118 119 122
3 34 35 31
3 81 80 82
3 123 126 125
3 57 58 59
3 136 134 126
3 146 195 145
3 58 160 60
3 7 8 4
3 12 13 9
3 125 128 127
3 194 124 122
3 70 68 189
3 1 5 78
3 34 36 35
3 35 38 39
3 189 187 190
3 164 165 168
3 183 160 156
3 177 58 56
3 195 148 145
3 96 95 97
3 120 123 125
3 90 91 93
3 199 104 198
3 66 65 67
3 30 33 31
3 108 118 105
3 61 59 62
3 0 1 2
3 165 58 177
3 2 1 3
3 106 121 196
3 163 162 164
3 195 156 148
3 54 176 53
3 2 3 83
3 51 178 173
3 48 49 179
3 21 23 22
3 163 161 162
3 153 155 157
3 53 50 54
3 147 152 150
3 68 22 66
3 168 170 167
3 44 46 48
3 36 37 35
3 95 107 97
3 172 170 168
3 191 115 189
3 37 38 35
3 4 0 6
3 177 56 176
3 78 76 79
3 88 110 91
3 184 183 185
3 104 103 198
3 4 9 10
3 46 182 181
3 25 26 22
3 18 19 13
3 45 47 46
3 52 50 53
3 184 185 186
3 60 160 183
3 17 20 18
3 146 188 185
3 117 144 194
3 84 81 82
3 80 79 86
3 112 111 110
3 40 41 38
3 111 76 113
3 137 140 139
3 43 45 46
3 42 45 43
3 162 58 165
3 87 91 90
3 165 177 175
3 144 143 138
3 166 163 164
3 117 194 116
3 141 151 142
3 187 186 188
3 118 111 116
3 141 147 149
3 187 68 186
3 15 16 13
3 96 97 99
3 107 108 105
3 198 106 197
3 118 120 106
3 60 183 184
3 83 3 81
3 98 94 96
3 88 86 112
3 5 4 10
3 125 126 131
3 156 160 155
3 1 78 3
3 186 185 188
3 51 179 178
3 28 64 29
3 171 169 170
3 157 158 159
3 12 15 13
3 65 61 62
3 53 56 55
3 151 141 149
3 132 126 133
3 116 114 117
3 93 107 95
3 175 174 172
3 118 116 119
3 33 34 31
3 67 62 184
3 3 80 81
3 143 141 138
3 137 141 140
3 9 14 10
3 47 182 46
3 126 134 133
3 85 86 88
3 100 99 101
3 111 113 114
3 73 14 72
3 48 46 49
3 11 12 9

POINT_DATA 200
COLOR_SCALARS GocadColor 4
0.392157 0.584314 0.929412 1
0.392157 0.584314 0.929412 1
0.392157 0.584314 0.929412 1
0.392157 0.584314 0.929412 1
0.392157 0.584314 0.929412 1
0.392157 0.584314 0.929412 1
0.392157 0.584314 0.929412 1
0.392157 0.584314 0.929412 1
0.392157 0.584314 0.929412 1
0.392157 0.584314 0.929412 1
0.392157 0.584314 0.929412 1
0.392157 0.584314 0.929412 1
0.392157 0.584314 0.929412 1
0.392157 0.584314 0.929412 1
0.392157 0.584314 0.929412 1
0.392157 0.584314 0.929412 1
0.392157 0.584314 0.929412 1
0.392157 0.584314 0.929412 1
0.392157 0.584314 0.929412 1
0.392157 0.584314 0.929412 1
0.392157 0.584314 0.929412 1
0.392157 0.584314 0.929412 1
0.392157 0.584314 0.929412 1
0.392157 0.584314 0.929412 1
0.392157 0.584314 0.929412 1
0.392157 0.584314 0.929412 1
0.392157 0.584314 0.929412 1
0.392157 0.584314 0.929412 1
0.392157 0.584314 0.929412 1
0.392157 0.584314 0.929412 1
0.392157 0.584314 0.929412 1
0.392157 0.584314 0.929412 1
0.392157 0.584314 0.929412 1
0.392157 0.584314 0.929412 1
0.392157 0.584314 0.929412 1
0.392157 0.584314 0.929412 1
0.392157 0.584314 0.929412 1
0.392157 0.584314 0.929412 1
0.392157 0.584314 0.929412 1
0.392157 0.584314 0.929412 1
0.392157 0.584314 0.929412 1
0.392157 0.584314 0.929412 1
0.392157 0.584314 0.929412 1
0.392157 0.584314 0.929412 1
0.392157 0.584314 0.929412 1
0.392157 0.584314 0.929412 1
0.392157 0.584314 0.929412 1
0.392157 0.584314 0.929412 1
0.392157 0.584314 0.929412 1
0.392157 0.584314 0.929412 1
0.392157 0.584314 0.929412 1
0.392157 0.584314 0.929412 1
0.392157 0.584314 0.929412 1
0.392157 0.584314 0.929412 1
0.392157 0.584314 0.929412 1
0.392157 0.584314 0.929412 1
0.392157 0.584314 0.929412 1
0.392157 0.584314 0.929412 1
0.392157 0.584314 0.929412 1
0.392157 0.584314 0.929412 1
0.392157 0.584314 0.929412 1
0.392157 0.584314 0.929412 1
0.392157 0.584314 0.929412 1
0.392157 0.584314 0.929412 1
0.392157 0.584314 0.929412 1
0.392157 0.584314 0.929412 1
0.392157 0.584314 0.929412 1
0.392157 0.584314 0.929412 1
0.392157 0.584314 0.929412 1
0.392157 0.584314 0.929412 1
0.392157 0.584314 0.929412 1
0.392157 0.584314 0.929412 1
0.392157 0.584314 0.929412 1
0.392157 0.584314 0.929412 1
0.392157 0.584314 0.929412 1
0.392157 0.584314 0.929412 1
0.392157 0.584314 0.929412 1
0.392157 0.584314 0.929412 1
0.392157 0.584314 0.929412 1
0.392157 0.584314 0.929412 1
0.392157 0.584314 0.929412 1
0.392157 0.584314 0.929412 1
0.392157 0.584314 0.929412 1
0.392157 0.584314 0.929412 1
0.392157 0.584314 0.929412 1
0.392157 0.584314 0.929412 1
0.392157 0.584314 0.929412 1
0.392157 0.584314 0.929412 1
0.392157 0.584314 0.929412 1
0.392157 0.584314 0.929412 1
0.392157 0.584314 0.929412 1
0.392157 0.584314 0.929412 1
0.392157 0.584314 0.929412 1
0.392157 0.584314 0.929412 1
0.392157 0.584314 0.929412 1
0.392157 0.584314 0.929412 1
0.392157 0.584314 0.929412 1
0.392157 0.584314 0.929412 1
0.392157 0.584314 0.929412 1
0.392157 0.584314 0.929412 1
0.392157 0.584314 0.929412 1
0.392157 0.584314 0.929412 1
0.392157 0.584314 0.929412 1
0.392157 0.584314 0.929412 1
0.392157 0.584314 0.929412 1
0.392157 0.584314 0.929412 1
0.392157 0.584314 0.929412 1
0.392157 0.584314 0.929412 1
0.392157 0.584314 0.929412 1
0.392157 0.584314 0.929412 1
0.392157 0.584314 0.929412 1
0.392157 0.584314 0.929412 1
0.392157 0.584314 0.929412 1
0.392157 0.584314 0.929412 1
0.392157 0.584314 0.929412 1
0.392157 0.584314 0.929412 1
0.392157 0.584314 0.929412 1
0.392157 0.584314 0.929412 1
0.392157 0.584314 0.929412 1
0.392157 0.584314 0.929412 1
0.392157 0.584314 0.929412 1
0.392157 0.584314 0.929412 1
0.392157 0.584314 0.929412 1
0.392157 0.584314 0.929412 1
0.392157 0.584314 0.929412 1
0.392157 0.584314 0.929412 1
0.392157 0.584314 0.929412 1
0.392157 0.584314 0.929412 1
0.392157 0.584314 0.929412 1
0.392157 0.584314 0.929412 1
0.392157 0.584314 0.929412 1
0.392157 0.584314 0.929412 1
0.392157 0.584314 0.929412 1
0.392157 0.584314 0.929412 1
0.392157 0.584314 0.929412 1
0.392157 0.584314 0.929412 1
0.392157 0.584314 0.929412 1
0.392157 0.584314 0.929412 1
0.392157 0.584314 0.929412 1
0.392157 0.584314 0.929412 1
0.392157 0.584314 0.929412 1
0.392157 0.584314 0.929412 1
0.392157 0.584314 0.929412 1
0.392157 0.584314 0.929412 1
0.392157 0.584314 0.929412 1
0.392157 0.584314 0.929412 1
0.392157 0.584314 0.929412 1
0.392157 0.584314 0.929412 1
0.392157 0.584314 0.929412 1
0.392157 0.584314 0.929412 1
0.392157 0.584314 0.929412 1
0.392157 0.584314 0.929412 1
0.392157 0.584314 0.929412 1
0.392157 0.584314 0.929412 1
0.392157 0.584314 0.929412 1
0.392157 0.584314 0.929412 1
0.392157 0.584314 0.929412 1
0.392157 0.584314 0.929412 1
0.392157 0.584314 0.929412 1
0.392157 0.584314 0.929412 1
0.392157 0.584314 0.929412 1
0.392157 0.584314 0.929412 1
0.392157 0.584314 0.929412 1
0.392157 0.584314 0.929412 1
0.392157 0.584314 0.929412 1
0.392157 0.584314 0.929412 1
0.392157 0.584314 0.929412 1
0.392157 0.584314 0.929412 1
0.392157 0.584314 0.929412 1
0.392157 0.584314 0.929412 1
0.392157 0.584314 0.929412 1
0.392157 0.584314 0.929412 1
0.392157 0.584314 0.929412 1
0.392157 0.584314 0.929412 1
0.392157 0.584314 0.929412 1
0.392157 0.584314 0.929412 1
0.392157 0.584314 0.929412 1
0.392157 0.584314 0.929412 1
0.392157 0.584314 0.929412 1
0.392157 0.584314 0.929412 1
0.392157 0.584314 0.929412 1
0.392157 0.584314 0.929412 1
0.392157 0.584314 0.929412 1
0.392157 0.584314 0.929412 1
0.392157 0.584314 0.929412 1
0.392157 0.584314 0.929412 1
0.392157 0.584314 0.929412 1
0.392157 0.584314 0.929412 1
0.392157 0.584314 0.929412 1
0.392157 0.584314 0.929412 1
0.392157 0.584314 0.929412 1
0.392157 0.584314 0.929412 1
0.392157 0.584314 0.929412 1
0.392157 0.584314 0.929412 1
0.392157 0.584314 0.929412 1
0.392157 0.584314 0.929412 1
0.392157 0.584314 0.929412 1
0.392157 0.584314 0.929412 1
0.392157 0.584314 0.929412 1
0.392157 0.584314 0.929412 1

