# vtk DataFile Version 3.0
Gocad TSurf to VTK
ASCII
DATASET POLYDATA
POINTS 122 float
21572250.000 4543262.500 388.750
21572200.000 4543185.000 412.500
21572150.000 4543320.000 322.500
21572150.000 4543107.500 436.250
21572225.000 4543330.000 343.750
21572325.000 4543112.500 493.750
21572400.000 4543140.000 505.000
21572325.000 4543112.500 493.750
21572100.000 4543030.000 460.000
21572175.000 4543057.500 471.250
21572300.000 4543340.000 365.000
21572225.000 4543367.500 316.250
21572150.000 4543395.000 267.500
21572075.000 4543422.500 218.750
21572000.000 4543300.000 280.000
21572000.000 4543450.000 170.000
21571950.000 4543422.500 183.750
21571950.000 4543310.000 266.250
21571950.000 4543452.500 162.500
21571900.000 4543455.000 155.000
21571850.000 4543457.500 147.500
21571850.000 4543367.500 211.250
21571800.000 4543460.000 140.000
21571850.000 4543330.000 238.750
21571750.000 4543385.000 186.250
21571725.000 4543327.500 217.500
21571750.000 4543475.000 122.500
21571700.000 4543430.000 147.500
21571700.000 4543490.000 105.000
21571650.000 4543505.000 87.500
21571600.000 4543520.000 70.000
21571500.000 4543290.000 195.000
21571225.000 4543355.000 205.000
21571075.000 4543055.000 373.750
21571350.000 4543610.000 42.500
21571050.000 4543585.000 77.500
21570950.000 4543420.000 215.000
21571100.000 4543700.000 15.000
21570825.000 4543732.500 18.750
21570850.000 4543790.000 -12.500
21570600.000 4543880.000 -40.000
21570625.000 4543385.000 281.250
21570300.000 4543672.500 190.000
21570444.250 4543182.035 472.327
21570450.000 4543920.000 -16.250
21570200.000 4543795.000 145.000
21570100.000 4543680.000 242.500
21570300.000 4543960.000 7.500
21570100.000 4543917.500 100.000
21569950.000 4543745.000 246.250
21570150.000 4544000.000 31.250
21570000.000 4544040.000 55.000
21569800.000 4543810.000 250.000
21569850.000 4544082.500 90.000
21569700.000 4543910.000 236.250
21569875.000 4544115.000 55.000
21569750.000 4544190.000 55.000
21569700.000 4544125.000 125.000
21569625.000 4544265.000 55.000
21569550.000 4544167.500 160.000
21569600.000 4544010.000 222.500
21569500.000 4544340.000 55.000
21569500.000 4544110.000 208.750
21569425.000 4544395.000 115.000
21569350.000 4544297.500 220.000
21569075.000 4544055.000 473.750
21569350.000 4544450.000 175.000
21569300.000 4544385.000 245.000
21569250.000 4544350.000 285.000
21569275.000 4544505.000 235.000
21569250.000 4544472.500 270.000
21569200.000 4544560.000 295.000
21569175.000 4544420.000 330.000
21569100.000 4544490.000 375.000
21569100.000 4544352.500 435.000
21569200.000 4544305.000 355.000
21569000.000 4544400.000 515.000
21569025.000 4544282.500 501.250
21569050.000 4544170.000 487.500
21569025.000 4544285.000 501.250
21569275.000 4543900.000 407.500
21569100.000 4543940.000 460.000
21569450.000 4543870.000 355.000
21569350.000 4543715.000 495.000
21569225.000 4543822.500 477.500
21569462.438 4543620.555 510.741
21569462.391 4543621.090 510.736
21569474.750 4543612.660 510.889
21569476.141 4543611.746 510.906
21569625.000 4543840.000 302.500
21569601.922 4543526.203 512.466
21569612.438 4543519.270 512.594
21569625.891 4543512.082 512.743
21569900.000 4543640.000 330.000
21569762.484 4543439.070 514.251
21569768.656 4543436.426 513.875
21569804.438 4543421.109 511.695
21570000.000 4543470.000 410.000
21569932.953 4543366.082 503.862
21570029.328 4543324.816 497.989
21570104.219 4543298.051 493.369
21570280.875 4543237.910 482.436
21569350.000 4543720.000 495.000
21569225.000 4543830.000 477.500
21570469.078 4543172.828 470.799
21570511.359 4543152.051 471.586
21570738.391 4543049.344 475.160
21570761.625 4543038.836 475.525
21570850.000 4543220.000 327.500
21570879.234 4542985.629 477.377
21571025.000 4542952.500 457.500
21571300.000 4542890.000 420.000
21571600.000 4543120.000 342.500
21571600.000 4542935.000 472.500
21571700.000 4542950.000 490.000
21572025.000 4543107.500 401.250
21571800.000 4542970.000 482.500
21572100.000 4543030.000 460.000
21572000.000 4543010.000 467.500
21572150.000 4543107.500 436.250
21572250.000 4543085.000 482.500
21572175.000 4543057.500 471.250

POLYGONS 170 680
3 80 83 84
3 79 77 78
3 32 33 108
3 35 34 32
3 61 59 62
3 3 14 2
3 75 78 74
3 32 108 36
3 40 41 42
3 53 54 57
3 120 119 121
3 27 24 25
3 103 84 102
3 8 9 3
3 7 3 6
3 62 60 82
3 119 120 117
3 114 23 115
3 52 48 49
3 22 20 21
3 17 14 115
3 60 54 89
3 101 97 42
3 31 33 32
3 112 31 25
3 29 28 27
3 116 114 115
3 102 84 83
3 118 116 117
3 84 103 80
3 4 2 11
3 92 91 52
3 33 111 110
3 28 26 27
3 112 114 113
3 96 95 93
3 69 67 70
3 58 56 57
3 76 73 74
3 34 30 32
3 73 72 74
3 5 0 6
3 90 88 89
3 37 34 35
3 63 61 62
3 46 97 93
3 66 64 67
3 64 63 62
3 99 98 97
3 30 29 27
3 31 111 33
3 61 58 59
3 95 94 93
3 53 52 54
3 6 3 5
3 0 1 2
3 49 45 46
3 17 21 16
3 64 62 65
3 71 70 72
3 63 64 66
3 108 110 109
3 8 3 7
3 0 2 4
3 76 74 77
3 57 54 60
3 74 72 75
3 70 67 68
3 26 22 24
3 38 35 36
3 111 112 113
3 44 42 45
3 11 2 12
3 57 56 53
3 0 10 6
3 87 85 82
3 40 38 41
3 49 48 45
3 43 42 41
3 72 68 75
3 85 86 83
3 14 13 2
3 24 22 23
3 37 35 38
3 23 114 112
3 52 49 93
3 92 52 93
3 50 47 48
3 49 46 93
3 57 60 59
3 82 85 83
3 89 88 82
3 82 60 89
3 44 40 42
3 20 19 16
3 1 0 5
3 23 17 115
3 30 31 32
3 1 3 2
3 0 4 10
3 91 90 52
3 26 24 27
3 100 99 97
3 116 118 114
3 75 68 64
3 90 89 52
3 62 80 65
3 98 96 97
3 18 15 16
3 55 51 53
3 31 30 27
3 14 15 13
3 21 20 16
3 54 52 89
3 82 83 80
3 73 71 72
3 108 107 41
3 38 36 41
3 59 58 57
3 36 35 32
3 40 39 38
3 80 81 65
3 78 77 74
3 115 14 117
3 16 14 17
3 14 119 117
3 65 78 75
3 51 52 53
3 51 50 48
3 47 45 48
3 76 77 79
3 47 44 45
3 88 87 82
3 71 69 70
3 13 12 2
3 116 115 117
3 106 105 41
3 111 31 112
3 25 24 23
3 59 60 62
3 68 67 64
3 107 108 109
3 31 27 25
3 5 3 1
3 72 70 68
3 107 106 41
3 75 64 65
3 66 67 69
3 43 101 42
3 94 92 93
3 105 104 41
3 25 23 112
3 15 14 16
3 23 21 17
3 36 108 41
3 108 33 110
3 19 18 16
3 103 81 80
3 86 102 83
3 52 51 48
3 101 100 97
3 56 55 53
3 39 37 38
3 4 11 10
3 97 46 42
3 46 45 42
3 96 93 97
3 104 43 41
3 80 62 82
3 22 21 23

POINT_DATA 122
COLOR_SCALARS GocadColor 4
1 0.843137 0 1
1 0.843137 0 1
1 0.843137 0 1
1 0.843137 0 1
1 0.843137 0 1
1 0.843137 0 1
1 0.843137 0 1
1 0.843137 0 1
1 0.843137 0 1
1 0.843137 0 1
1 0.843137 0 1
1 0.843137 0 1
1 0.843137 0 1
1 0.843137 0 1
1 0.843137 0 1
1 0.843137 0 1
1 0.843137 0 1
1 0.843137 0 1
1 0.843137 0 1
1 0.843137 0 1
1 0.843137 0 1
1 0.843137 0 1
1 0.843137 0 1
1 0.843137 0 1
1 0.843137 0 1
1 0.843137 0 1
1 0.843137 0 1
1 0.843137 0 1
1 0.843137 0 1
1 0.843137 0 1
1 0.843137 0 1
1 0.843137 0 1
1 0.843137 0 1
1 0.843137 0 1
1 0.843137 0 1
1 0.843137 0 1
1 0.843137 0 1
1 0.843137 0 1
1 0.843137 0 1
1 0.843137 0 1
1 0.843137 0 1
1 0.843137 0 1
1 0.843137 0 1
1 0.843137 0 1
1 0.843137 0 1
1 0.843137 0 1
1 0.843137 0 1
1 0.843137 0 1
1 0.843137 0 1
1 0.843137 0 1
1 0.843137 0 1
1 0.843137 0 1
1 0.843137 0 1
1 0.843137 0 1
1 0.843137 0 1
1 0.843137 0 1
1 0.843137 0 1
1 0.843137 0 1
1 0.843137 0 1
1 0.843137 0 1
1 0.843137 0 1
1 0.843137 0 1
1 0.843137 0 1
1 0.843137 0 1
1 0.843137 0 1
1 0.843137 0 1
1 0.843137 0 1
1 0.843137 0 1
1 0.843137 0 1
1 0.843137 0 1
1 0.843137 0 1
1 0.843137 0 1
1 0.843137 0 1
1 0.843137 0 1
1 0.843137 0 1
1 0.843137 0 1
1 0.843137 0 1
1 0.843137 0 1
1 0.843137 0 1
1 0.843137 0 1
1 0.843137 0 1
1 0.843137 0 1
1 0.843137 0 1
1 0.843137 0 1
1 0.843137 0 1
1 0.843137 0 1
1 0.843137 0 1
1 0.843137 0 1
1 0.843137 0 1
1 0.843137 0 1
1 0.843137 0 1
1 0.843137 0 1
1 0.843137 0 1
1 0.843137 0 1
1 0.843137 0 1
1 0.843137 0 1
1 0.843137 0 1
1 0.843137 0 1
1 0.843137 0 1
1 0.843137 0 1
1 0.843137 0 1
1 0.843137 0 1
1 0.843137 0 1
1 0.843137 0 1
1 0.843137 0 1
1 0.843137 0 1
1 0.843137 0 1
1 0.843137 0 1
1 0.843137 0 1
1 0.843137 0 1
1 0.843137 0 1
1 0.843137 0 1
1 0.843137 0 1
1 0.843137 0 1
1 0.843137 0 1
1 0.843137 0 1
1 0.843137 0 1
1 0.843137 0 1
1 0.843137 0 1
1 0.843137 0 1
1 0.843137 0 1
1 0.843137 0 1

