# vtk DataFile Version 3.0
Gocad TSurf to VTK
ASCII
DATASET POLYDATA
POINTS 161 float
21622150.000 4572967.500 -160.000
21622200.000 4572760.000 -195.000
21622500.000 4572790.000 -11.250
21622350.000 4572610.000 -97.500
21622400.000 4573080.000 -18.750
21622625.000 4573177.500 93.750
21622100.000 4573175.000 -125.000
21622250.000 4573245.000 -35.000
21622050.000 4573382.500 -90.000
21622125.000 4573417.500 -45.000
21622000.000 4573590.000 -55.000
21622025.000 4573802.500 -12.500
21622500.000 4574210.000 272.500
21621950.000 4573780.000 -31.250
21621950.000 4573985.000 5.000
21622025.000 4574212.500 86.250
21621900.000 4573970.000 -7.500
21621875.000 4574167.500 22.500
21621850.000 4574160.000 16.250
21621800.000 4574350.000 40.000
21622250.000 4574310.000 198.750
21621900.000 4574580.000 125.000
21622250.000 4574935.000 362.500
21621750.000 4574535.000 61.250
21621800.000 4574750.000 125.000
21621950.000 4574800.000 187.500
21621700.000 4574720.000 82.500
21621700.000 4574920.000 125.000
21621650.000 4574905.000 103.750
21621600.000 4575090.000 125.000
21622075.000 4575062.500 306.250
21621825.000 4575310.000 212.500
21622296.211 4575400.145 472.691
21621600.000 4575235.000 118.750
21621750.000 4575430.000 175.000
21621750.000 4575610.000 208.750
21621600.000 4575380.000 112.500
21621675.000 4575550.000 137.500
21621600.000 4575525.000 106.250
21621600.000 4575670.000 100.000
21621700.000 4575750.000 195.000
21621575.000 4575802.500 166.250
21622050.000 4575745.000 396.250
21622100.000 4575930.000 445.000
21622175.719 4575801.273 466.455
21621700.000 4575885.000 265.000
21622000.000 4576017.500 452.500
21621650.000 4575862.500 237.500
21621600.000 4575975.000 280.000
21621550.000 4575935.000 232.500
21621525.000 4576067.500 298.750
21621550.000 4576087.500 322.500
21621500.000 4576200.000 365.000
21621700.000 4576155.000 405.000
21621672.656 4576277.695 459.962
21621900.000 4576110.000 460.000
21621880.195 4576127.820 461.485
21621805.688 4576182.523 460.667
21621879.930 4576126.563 461.505
21621788.914 4576195.016 460.573
21621700.000 4576261.211 460.074
21622207.672 4575689.813 468.188
21622228.633 4575616.711 469.326
21622261.070 4575517.133 470.872
21622318.336 4575330.172 473.779
21622377.703 4575201.742 475.764
21622381.195 4575194.199 475.881
21622397.180 4575155.770 475.645
21622434.484 4575066.113 475.096
21622466.234 4575001.859 477.045
21622531.750 4574869.258 481.069
21622569.500 4574792.852 483.388
21622600.000 4574680.000 475.000
21622700.000 4574512.500 461.250
21622900.000 4574177.500 433.750
21623000.000 4574010.000 420.000
21622875.000 4573732.500 311.250
21623200.000 4573655.000 462.500
21623300.000 4573477.500 483.750
21623383.406 4573329.449 501.475
21623390.500 4573298.500 499.961
21623390.828 4573294.801 499.738
21623390.430 4573290.789 499.438
21623000.000 4572915.000 272.500
21622500.000 4572460.000 0.000
21623364.422 4573076.965 483.056
21623353.703 4572989.465 476.346
21623345.047 4572918.449 470.904
21623389.914 4572775.313 464.853
21623150.000 4572460.000 257.500
21623453.078 4572706.027 465.197
21623489.664 4572665.891 465.396
21623521.555 4572630.914 465.570
21623573.828 4572568.484 465.513
21623595.000 4572543.195 465.490
21623677.367 4572460.000 466.417
21623687.930 4572437.797 465.764
21623400.000 4572040.000 265.000
21622800.000 4571790.000 -70.000
21623704.000 4572404.023 464.769
21623704.000 4572359.199 455.000
21623704.000 4572244.355 432.200
21623704.000 4572088.363 399.036
21623704.000 4572029.867 386.600
21622900.000 4571705.000 -27.500
21623704.000 4571935.238 361.709
21622600.000 4571577.500 -196.250
21622600.000 4571450.000 -210.000
21622600.000 4571832.500 -168.750
21622500.000 4571910.000 -210.000
21622525.000 4571795.000 -210.000
21622550.000 4571680.000 -210.000
21622575.000 4571565.000 -210.000
21622450.000 4572035.000 -171.250
21622575.000 4572085.000 -116.250
21622400.000 4572160.000 -132.500
21622450.000 4572185.000 -105.000
21622375.000 4572297.500 -80.000
21622350.000 4572285.000 -93.750
21622300.000 4572410.000 -55.000
21622275.000 4572497.500 -90.000
21622250.000 4572585.000 -125.000
21622225.000 4572672.500 -160.000
21622750.000 4571370.000 -185.000
21622900.000 4571290.000 -160.000
21622625.000 4571327.500 -241.250
21622650.000 4571205.000 -272.500
21622675.000 4571082.500 -303.750
21622700.000 4570960.000 -335.000
21623550.000 4571105.000 15.000
21623150.000 4570970.000 -152.500
21623400.000 4571352.500 43.750
21623704.000 4571690.699 277.450
21623704.000 4571194.320 106.373
21623704.000 4571094.000 70.000
21623704.000 4571415.832 184.350
21623704.000 4571463.047 201.277
21623704.000 4571525.781 221.590
21623050.000 4570650.000 -237.500
21623704.000 4570980.848 52.953
21622775.000 4570842.500 -321.250
21622850.000 4570725.000 -307.500
21622725.000 4570822.500 -342.500
21622750.000 4570685.000 -350.000
21622775.000 4570547.500 -357.500
21622925.000 4570607.500 -293.750
21622800.000 4570410.000 -365.000
21623000.000 4570490.000 -280.000
21623704.000 4570951.512 48.533
21623075.000 4570300.000 -301.250
21623704.000 4570134.598 -145.165
21623704.000 4570130.262 -145.681
21623704.000 4570145.039 -142.720
21623704.000 4570627.160 -12.359
21623704.000 4570727.602 14.800
21623350.000 4570190.000 -237.500
21623704.000 4570106.859 -148.470
21623625.000 4570080.000 -173.750
21623704.000 4570048.398 -155.436
21623704.000 4571743.367 296.717
21623704.000 4571787.633 310.850

POLYGONS 211 844
3 87 86 83
3 95 94 89
3 68 67 22
3 96 95 89
3 13 11 14
3 148 147 154
3 121 120 3
3 80 5 2
3 27 24 25
3 120 119 84
3 6 7 8
3 16 13 14
3 145 146 147
3 53 51 45
3 76 75 9
3 20 11 12
3 11 10 9
3 104 124 160
3 1 3 2
3 129 138 134
3 97 98 104
3 21 20 22
3 84 117 114
3 108 106 98
3 157 158 156
3 97 104 103
3 139 138 148
3 45 46 55
3 149 147 146
3 73 72 20
3 138 147 148
3 42 35 31
3 91 90 89
3 49 47 48
3 70 69 22
3 144 146 145
3 55 53 45
3 23 19 21
3 149 151 150
3 5 76 9
3 109 108 98
3 20 12 73
3 28 26 27
3 149 155 151
3 61 44 42
3 143 144 141
3 33 29 31
3 32 63 31
3 97 100 99
3 73 74 72
3 116 115 114
3 89 114 98
3 147 149 150
3 64 32 30
3 29 27 30
3 159 124 132
3 97 89 98
3 19 15 20
3 15 11 20
3 147 150 152
3 65 64 30
3 44 43 42
3 36 34 37
3 45 40 43
3 67 30 22
3 27 25 30
3 142 140 128
3 89 88 83
3 20 72 22
3 60 54 53
3 35 37 34
3 32 31 30
3 88 87 83
3 56 57 53
3 108 110 106
3 134 138 139
3 4 0 2
3 117 84 119
3 67 66 30
3 49 41 47
3 126 124 123
3 131 129 133
3 140 130 128
3 57 59 53
3 2 84 83
3 9 75 12
3 69 68 22
3 125 126 123
3 31 29 30
3 19 18 17
3 51 53 52
3 59 60 53
3 4 5 7
3 54 52 53
3 63 62 31
3 127 128 124
3 22 25 21
3 92 91 89
3 140 143 141
3 22 72 71
3 33 31 34
3 13 10 11
3 142 143 140
3 8 7 9
3 131 137 132
3 141 144 145
3 131 135 136
3 66 65 30
3 118 117 119
3 117 116 114
3 56 55 58
3 124 128 129
3 21 19 20
3 110 111 106
3 96 97 99
3 155 156 151
3 128 130 129
3 135 131 133
3 107 125 123
3 23 21 24
3 80 79 5
3 129 131 124
3 0 1 2
3 17 14 15
3 97 96 89
3 118 116 117
3 5 79 78
3 145 138 141
3 50 48 51
3 140 141 138
3 89 84 114
3 50 49 48
3 155 157 156
3 26 24 27
3 14 11 15
3 130 140 138
3 12 74 73
3 46 45 43
3 112 107 106
3 81 80 2
3 39 38 37
3 124 159 160
3 40 35 42
3 107 123 104
3 7 6 4
3 118 115 116
3 50 51 52
3 106 107 104
3 41 40 47
3 77 75 76
3 82 81 2
3 98 106 104
3 75 74 12
3 115 113 114
3 154 147 153
3 126 127 124
3 147 152 153
3 31 62 42
3 90 88 89
3 122 121 3
3 77 76 78
3 7 5 9
3 101 97 102
3 145 147 138
3 3 120 84
3 102 97 103
3 11 9 12
3 55 56 53
3 5 4 2
3 85 82 83
3 26 23 24
3 47 45 48
3 19 17 15
3 70 22 71
3 103 104 105
3 104 160 105
3 36 33 34
3 29 28 27
3 82 2 83
3 94 93 89
3 43 40 42
3 76 5 78
3 38 36 37
3 100 97 101
3 10 8 9
3 113 109 98
3 51 48 45
3 62 61 42
3 129 130 138
3 86 85 83
3 25 22 30
3 112 106 111
3 104 123 124
3 35 40 39
3 137 131 136
3 47 40 45
3 1 122 3
3 25 24 21
3 16 14 17
3 124 131 132
3 93 92 89
3 2 3 84
3 133 129 134
3 6 0 4
3 39 37 35
3 110 108 109
3 83 84 89
3 35 34 31
3 18 16 17
3 41 39 40
3 114 113 98

POINT_DATA 161
COLOR_SCALARS GocadColor 4
0.0930037 0.0930037 0.439216 1
0.0930037 0.0930037 0.439216 1
0.0930037 0.0930037 0.439216 1
0.0930037 0.0930037 0.439216 1
0.0930037 0.0930037 0.439216 1
0.0930037 0.0930037 0.439216 1
0.0930037 0.0930037 0.439216 1
0.0930037 0.0930037 0.439216 1
0.0930037 0.0930037 0.439216 1
0.0930037 0.0930037 0.439216 1
0.0930037 0.0930037 0.439216 1
0.0930037 0.0930037 0.439216 1
0.0930037 0.0930037 0.439216 1
0.0930037 0.0930037 0.439216 1
0.0930037 0.0930037 0.439216 1
0.0930037 0.0930037 0.439216 1
0.0930037 0.0930037 0.439216 1
0.0930037 0.0930037 0.439216 1
0.0930037 0.0930037 0.439216 1
0.0930037 0.0930037 0.439216 1
0.0930037 0.0930037 0.439216 1
0.0930037 0.0930037 0.439216 1
0.0930037 0.0930037 0.439216 1
0.0930037 0.0930037 0.439216 1
0.0930037 0.0930037 0.439216 1
0.0930037 0.0930037 0.439216 1
0.0930037 0.0930037 0.439216 1
0.0930037 0.0930037 0.439216 1
0.0930037 0.0930037 0.439216 1
0.0930037 0.0930037 0.439216 1
0.0930037 0.0930037 0.439216 1
0.0930037 0.0930037 0.439216 1
0.0930037 0.0930037 0.439216 1
0.0930037 0.0930037 0.439216 1
0.0930037 0.0930037 0.439216 1
0.0930037 0.0930037 0.439216 1
0.0930037 0.0930037 0.439216 1
0.0930037 0.0930037 0.439216 1
0.0930037 0.0930037 0.439216 1
0.0930037 0.0930037 0.439216 1
0.0930037 0.0930037 0.439216 1
0.0930037 0.0930037 0.439216 1
0.0930037 0.0930037 0.439216 1
0.0930037 0.0930037 0.439216 1
0.0930037 0.0930037 0.439216 1
0.0930037 0.0930037 0.439216 1
0.0930037 0.0930037 0.439216 1
0.0930037 0.0930037 0.439216 1
0.0930037 0.0930037 0.439216 1
0.0930037 0.0930037 0.439216 1
0.0930037 0.0930037 0.439216 1
0.0930037 0.0930037 0.439216 1
0.0930037 0.0930037 0.439216 1
0.0930037 0.0930037 0.439216 1
0.0930037 0.0930037 0.439216 1
0.0930037 0.0930037 0.439216 1
0.0930037 0.0930037 0.439216 1
0.0930037 0.0930037 0.439216 1
0.0930037 0.0930037 0.439216 1
0.0930037 0.0930037 0.439216 1
0.0930037 0.0930037 0.439216 1
0.0930037 0.0930037 0.439216 1
0.0930037 0.0930037 0.439216 1
0.0930037 0.0930037 0.439216 1
0.0930037 0.0930037 0.439216 1
0.0930037 0.0930037 0.439216 1
0.0930037 0.0930037 0.439216 1
0.0930037 0.0930037 0.439216 1
0.0930037 0.0930037 0.439216 1
0.0930037 0.0930037 0.439216 1
0.0930037 0.0930037 0.439216 1
0.0930037 0.0930037 0.439216 1
0.0930037 0.0930037 0.439216 1
0.0930037 0.0930037 0.439216 1
0.0930037 0.0930037 0.439216 1
0.0930037 0.0930037 0.439216 1
0.0930037 0.0930037 0.439216 1
0.0930037 0.0930037 0.439216 1
0.0930037 0.0930037 0.439216 1
0.0930037 0.0930037 0.439216 1
0.0930037 0.0930037 0.439216 1
0.0930037 0.0930037 0.439216 1
0.0930037 0.0930037 0.439216 1
0.0930037 0.0930037 0.439216 1
0.0930037 0.0930037 0.439216 1
0.0930037 0.0930037 0.439216 1
0.0930037 0.0930037 0.439216 1
0.0930037 0.0930037 0.439216 1
0.0930037 0.0930037 0.439216 1
0.0930037 0.0930037 0.439216 1
0.0930037 0.0930037 0.439216 1
0.0930037 0.0930037 0.439216 1
0.0930037 0.0930037 0.439216 1
0.0930037 0.0930037 0.439216 1
0.0930037 0.0930037 0.439216 1
0.0930037 0.0930037 0.439216 1
0.0930037 0.0930037 0.439216 1
0.0930037 0.0930037 0.439216 1
0.0930037 0.0930037 0.439216 1
0.0930037 0.0930037 0.439216 1
0.0930037 0.0930037 0.439216 1
0.0930037 0.0930037 0.439216 1
0.0930037 0.0930037 0.439216 1
0.0930037 0.0930037 0.439216 1
0.0930037 0.0930037 0.439216 1
0.0930037 0.0930037 0.439216 1
0.0930037 0.0930037 0.439216 1
0.0930037 0.0930037 0.439216 1
0.0930037 0.0930037 0.439216 1
0.0930037 0.0930037 0.439216 1
0.0930037 0.0930037 0.439216 1
0.0930037 0.0930037 0.439216 1
0.0930037 0.0930037 0.439216 1
0.0930037 0.0930037 0.439216 1
0.0930037 0.0930037 0.439216 1
0.0930037 0.0930037 0.439216 1
0.0930037 0.0930037 0.439216 1
0.0930037 0.0930037 0.439216 1
0.0930037 0.0930037 0.439216 1
0.0930037 0.0930037 0.439216 1
0.0930037 0.0930037 0.439216 1
0.0930037 0.0930037 0.439216 1
0.0930037 0.0930037 0.439216 1
0.0930037 0.0930037 0.439216 1
0.0930037 0.0930037 0.439216 1
0.0930037 0.0930037 0.439216 1
0.0930037 0.0930037 0.439216 1
0.0930037 0.0930037 0.439216 1
0.0930037 0.0930037 0.439216 1
0.0930037 0.0930037 0.439216 1
0.0930037 0.0930037 0.439216 1
0.0930037 0.0930037 0.439216 1
0.0930037 0.0930037 0.439216 1
0.0930037 0.0930037 0.439216 1
0.0930037 0.0930037 0.439216 1
0.0930037 0.0930037 0.439216 1
0.0930037 0.0930037 0.439216 1
0.0930037 0.0930037 0.439216 1
0.0930037 0.0930037 0.439216 1
0.0930037 0.0930037 0.439216 1
0.0930037 0.0930037 0.439216 1
0.0930037 0.0930037 0.439216 1
0.0930037 0.0930037 0.439216 1
0.0930037 0.0930037 0.439216 1
0.0930037 0.0930037 0.439216 1
0.0930037 0.0930037 0.439216 1
0.0930037 0.0930037 0.439216 1
0.0930037 0.0930037 0.439216 1
0.0930037 0.0930037 0.439216 1
0.0930037 0.0930037 0.439216 1
0.0930037 0.0930037 0.439216 1
0.0930037 0.0930037 0.439216 1
0.0930037 0.0930037 0.439216 1
0.0930037 0.0930037 0.439216 1
0.0930037 0.0930037 0.439216 1
0.0930037 0.0930037 0.439216 1
0.0930037 0.0930037 0.439216 1
0.0930037 0.0930037 0.439216 1
0.0930037 0.0930037 0.439216 1
0.0930037 0.0930037 0.439216 1
0.0930037 0.0930037 0.439216 1

