# vtk DataFile Version 3.0
Gocad TSurf to VTK
ASCII
DATASET POLYDATA
POINTS 183 float
21603550.000 4582720.000 -1965.000
21603975.000 4582352.500 -2327.500
21604725.000 4581997.500 -2662.500
21604950.000 4581722.500 -3073.750
21603500.000 4582910.000 -1770.000
21604000.000 4581970.000 -2695.000
21602275.000 4582555.000 -2035.000
21604675.000 4581760.000 -3040.000
21604700.000 4581580.000 -3095.000
21604900.000 4581690.000 -3155.000
21604850.000 4581662.500 -3140.000
21604800.000 4581635.000 -3125.000
21604750.000 4581607.500 -3110.000
21604650.000 4581492.500 -3145.000
21604600.000 4581405.000 -3195.000
21604550.000 4581317.500 -3245.000
21604500.000 4581230.000 -3295.000
21601700.000 4582750.000 -1815.000
21603850.000 4581442.500 -2878.750
21601550.000 4583065.000 -1437.500
21602200.000 4583390.000 -1185.000
21600950.000 4583500.000 -1020.000
21601375.000 4583535.000 -958.750
21599100.000 4584240.000 -210.000
21599500.000 4584117.500 -346.250
21599800.000 4583545.000 -572.500
21599100.000 4584082.500 -233.750
21601400.000 4582775.000 -1595.000
21600150.000 4583197.500 -753.750
21601800.000 4582415.000 -1722.500
21601850.000 4582247.500 -1676.250
21602550.000 4581867.500 -2046.250
21604275.000 4580952.500 -3126.250
21604200.000 4580860.000 -3070.000
21602850.000 4581305.000 -2167.500
21601525.000 4581847.500 -1577.500
21604100.000 4580777.500 -2978.750
21604000.000 4580695.000 -2887.500
21603900.000 4580612.500 -2796.250
21603800.000 4580530.000 -2705.000
21601400.000 4581770.000 -1560.000
21603275.000 4580707.500 -2443.750
21601625.000 4581372.500 -1635.000
21603775.000 4580482.500 -2722.500
21603750.000 4580435.000 -2740.000
21603725.000 4580387.500 -2757.500
21602225.000 4581062.500 -1921.250
21603700.000 4580340.000 -2775.000
21601700.000 4581240.000 -1660.000
21600050.000 4582070.000 -693.750
21599600.000 4582170.000 -405.000
21599300.000 4582755.000 -435.000
21599200.000 4582950.000 -445.000
21601175.000 4582040.000 -1403.750
21599525.000 4582925.000 -567.500
21600725.000 4582580.000 -1091.250
21599175.000 4583115.000 -410.000
21599175.000 4583115.000 -410.000
21599150.000 4583280.000 -375.000
21599125.000 4583445.000 -340.000
21599100.000 4583610.000 -305.000
21599100.000 4583767.500 -281.250
21599100.000 4583767.500 -281.250
21599100.000 4583925.000 -257.500
21604350.000 4581045.000 -3182.500
21604425.000 4581137.500 -3238.750
21600300.000 4583872.500 -618.750
21599100.000 4584435.000 -202.500
21599100.000 4584440.000 -202.500
21599100.000 4584532.500 -198.750
21599100.000 4584630.000 -195.000
21600000.000 4584170.000 -490.000
21599100.000 4584640.000 -195.000
21599125.000 4584812.500 -103.750
21599925.000 4584682.500 -217.500
21599150.000 4584995.000 -12.500
21599175.000 4585177.500 78.750
21599200.000 4585360.000 170.000
21599175.000 4585180.000 78.750
21600200.000 4584700.000 -225.000
21599500.000 4585300.000 246.250
21600150.000 4584567.500 -291.250
21600100.000 4584435.000 -357.500
21600450.000 4584225.000 -490.000
21601300.000 4584000.000 -655.000
21601000.000 4583875.000 -705.000
21601075.000 4584280.000 -372.500
21601850.000 4583727.500 -933.750
21600300.000 4584910.000 125.000
21600399.234 4585118.398 472.326
21599800.000 4585240.000 322.500
21600100.000 4585180.000 398.750
21600384.727 4585123.055 471.118
21600401.953 4585117.570 472.552
21602950.000 4583182.500 -1491.250
21600403.047 4585117.688 472.653
21600403.219 4585117.703 472.669
21600405.008 4585117.313 472.821
21601000.000 4584797.500 213.750
21603325.000 4583140.000 -1470.000
21600421.391 4585117.148 474.287
21600625.000 4585090.000 467.500
21601075.000 4585030.000 452.500
21600625.000 4585090.000 467.500
21600850.000 4585060.000 460.000
21600421.391 4585117.148 474.287
21601300.000 4585000.000 445.000
21601600.000 4584475.000 -47.500
21601825.000 4585007.500 415.000
21602000.000 4585010.000 405.000
21602800.000 4584280.000 -225.000
21603100.000 4583685.000 -710.000
21602225.000 4585022.500 387.500
21602450.000 4585035.000 370.000
21602900.000 4585060.000 335.000
21602450.000 4585040.000 370.000
21602675.000 4585055.000 352.500
21602900.000 4585070.000 335.000
21603125.000 4585100.000 331.250
21603950.000 4584475.000 -300.000
21603125.000 4585107.500 331.250
21603350.000 4585145.000 327.500
21603575.000 4585182.500 323.750
21603800.000 4585220.000 320.000
21604800.000 4583420.000 -1145.000
21604625.000 4583497.500 -1088.750
21604125.000 4585010.000 72.500
21604950.000 4583900.000 -907.500
21604075.000 4585250.000 261.250
21604350.000 4585280.000 202.500
21604625.000 4585310.000 143.750
21604900.000 4585340.000 85.000
21604625.000 4585317.500 143.750
21604900.000 4585350.000 85.000
21605100.000 4584380.000 -670.000
21605400.000 4583310.000 -1355.000
21605100.000 4583365.000 -1250.000
21605400.000 4582815.000 -1682.500
21605600.000 4582340.000 -1910.000
21605550.000 4582335.000 -1935.000
21605500.000 4582330.000 -1960.000
21605450.000 4582325.000 -1985.000
21605400.000 4582320.000 -2010.000
21605000.000 4582860.000 -1682.500
21605350.000 4582315.000 -2062.500
21605300.000 4582310.000 -2115.000
21605250.000 4582305.000 -2167.500
21605200.000 4582300.000 -2220.000
21604100.000 4583730.000 -920.000
21604900.000 4582537.500 -1947.500
21604025.000 4583370.000 -1077.500
21605200.000 4582242.500 -2198.750
21605200.000 4582185.000 -2177.500
21605200.000 4582127.500 -2156.250
21604300.000 4583012.500 -1402.500
21605200.000 4582070.000 -2135.000
21604300.000 4582920.000 -1420.000
21605200.000 4582035.000 -2173.750
21603775.000 4583867.500 -746.250
21604775.000 4582175.000 -2160.000
21605200.000 4581965.000 -2251.250
21603925.000 4582665.000 -1900.000
21605150.000 4581875.000 -2560.000
21605100.000 4581820.000 -2830.000
21605125.000 4581845.000 -2695.000
21605150.000 4581870.000 -2560.000
21605175.000 4581895.000 -2425.000
21605200.000 4581920.000 -2290.000
21605200.000 4581957.500 -2251.250
21605200.000 4581995.000 -2212.500
21605200.000 4582032.500 -2173.750
21605050.000 4581787.500 -2911.250
21605000.000 4581755.000 -2992.500
21600575.000 4583987.500 -622.500
21600400.000 4585120.000 475.000
21600403.219 4585117.703 472.669
21600405.008 4585117.313 472.821
21600421.391 4585117.148 474.287
21600403.047 4585117.688 472.653
21600401.953 4585117.570 472.552
21600399.234 4585118.398 472.326
21600384.727 4585123.055 471.118
21600421.391 4585117.148 474.287

POLYGONS 257 1028
3 142 141 137
3 130 129 126
3 27 17 25
3 93 89 86
3 41 39 40
3 52 49 40
3 83 82 71
3 164 165 162
3 111 99 157
3 85 83 173
3 51 50 49
3 8 12 7
3 30 29 27
3 135 127 136
3 156 157 155
3 55 28 54
3 138 135 137
3 33 31 30
3 111 110 107
3 55 30 28
3 90 79 88
3 54 53 55
3 99 161 159
3 136 124 137
3 86 84 87
3 55 53 35
3 0 6 5
3 159 160 157
3 55 35 30
3 137 140 139
3 28 25 61
3 96 95 94
3 173 66 85
3 157 170 155
3 124 125 143
3 122 121 118
3 158 111 150
3 148 158 150
3 23 17 21
3 150 111 156
3 57 56 58
3 156 111 157
3 70 69 24
3 117 114 118
3 45 44 41
3 153 152 149
3 21 17 19
3 158 114 110
3 167 168 160
3 118 114 119
3 116 115 113
3 132 130 131
3 114 116 113
3 125 148 143
3 89 88 86
3 108 106 107
3 17 27 29
3 42 46 41
3 100 103 105
3 4 96 94
3 7 11 10
3 12 11 7
3 125 124 119
3 54 52 53
3 76 78 75
3 86 79 84
3 149 151 147
3 75 73 74
3 56 52 54
3 41 44 43
3 2 171 163
3 124 142 137
3 128 123 126
3 162 165 166
3 28 59 56
3 147 146 143
3 53 40 35
3 84 83 85
3 161 4 163
3 62 60 61
3 84 85 22
3 29 31 18
3 120 117 118
3 169 170 157
3 149 148 150
3 1 7 9
3 102 101 98
3 30 31 29
3 97 4 98
3 146 145 143
3 49 42 40
3 141 140 137
3 5 8 7
3 35 40 34
3 72 70 73
3 110 109 107
3 154 150 156
3 158 110 111
3 39 38 34
3 121 120 118
3 46 45 41
3 166 167 160
3 113 112 110
3 126 123 124
3 100 97 98
3 93 86 94
3 52 56 57
3 132 131 133
3 24 23 21
3 106 98 107
3 2 4 0
3 159 162 160
3 1 9 3
3 161 163 162
3 22 21 19
3 173 83 71
3 163 164 162
3 63 62 61
3 24 67 23
3 13 8 5
3 6 16 5
3 69 67 24
3 135 134 127
3 103 101 104
3 0 1 2
3 28 56 54
3 20 19 6
3 124 123 119
3 102 98 106
3 154 155 153
3 116 114 117
3 33 30 34
3 160 169 157
3 107 98 99
3 99 4 161
3 79 81 83
3 74 70 71
3 1 5 7
3 60 59 28
3 63 25 26
3 25 23 26
3 42 48 46
3 31 33 32
3 77 76 74
3 99 159 157
3 0 4 94
3 90 88 91
3 18 17 29
3 53 52 40
3 38 37 34
3 1 3 2
3 80 77 79
3 67 69 68
3 66 21 85
3 110 114 113
3 52 51 49
3 30 27 28
3 161 162 159
3 9 7 10
3 46 48 47
3 31 32 18
3 74 82 81
3 16 15 5
3 97 96 4
3 74 79 77
3 18 16 17
3 123 122 118
3 109 108 107
3 17 6 19
3 17 23 25
3 127 134 126
3 79 74 81
3 144 142 143
3 131 130 126
3 154 156 155
3 149 147 148
3 148 125 119
3 81 82 83
3 71 70 24
3 6 17 16
3 60 28 61
3 49 50 48
3 80 79 90
3 137 135 136
3 40 39 34
3 82 74 71
3 148 147 143
3 114 148 119
3 128 126 129
3 169 160 168
3 15 14 5
3 61 25 63
3 112 109 110
3 130 132 129
3 84 79 83
3 18 64 65
3 70 72 69
3 32 64 18
3 123 118 119
3 94 20 6
3 113 115 112
3 18 65 16
3 87 84 20
3 148 114 158
3 88 79 86
3 98 4 99
3 95 93 94
3 36 33 34
3 84 22 20
3 87 20 94
3 154 153 149
3 144 143 145
3 149 152 151
3 162 166 160
3 150 154 149
3 73 70 74
3 1 0 5
3 30 35 34
3 20 22 19
3 46 47 45
3 100 98 101
3 66 71 24
3 77 78 76
3 107 99 111
3 139 138 137
3 104 101 102
3 21 22 85
3 126 124 127
3 49 48 42
3 68 23 67
3 2 172 171
3 92 91 88
3 71 66 173
3 56 59 58
3 94 6 0
3 14 13 5
3 34 37 36
3 142 124 143
3 89 92 88
3 87 94 86
3 2 163 4
3 76 75 74
3 41 43 39
3 134 131 126
3 124 136 127
3 3 172 2
3 100 101 103
3 25 28 27
3 21 66 24
3 41 40 42
3 174 175 176
3 177 174 176
3 179 174 180
3 174 178 175
3 180 174 181
3 174 179 178
3 182 174 177

POINT_DATA 183
COLOR_SCALARS GocadColor 4
1 0.498039 0.313726 1
1 0.498039 0.313726 1
1 0.498039 0.313726 1
1 0.498039 0.313726 1
1 0.498039 0.313726 1
1 0.498039 0.313726 1
1 0.498039 0.313726 1
1 0.498039 0.313726 1
1 0.498039 0.313726 1
1 0.498039 0.313726 1
1 0.498039 0.313726 1
1 0.498039 0.313726 1
1 0.498039 0.313726 1
1 0.498039 0.313726 1
1 0.498039 0.313726 1
1 0.498039 0.313726 1
1 0.498039 0.313726 1
1 0.498039 0.313726 1
1 0.498039 0.313726 1
1 0.498039 0.313726 1
1 0.498039 0.313726 1
1 0.498039 0.313726 1
1 0.498039 0.313726 1
1 0.498039 0.313726 1
1 0.498039 0.313726 1
1 0.498039 0.313726 1
1 0.498039 0.313726 1
1 0.498039 0.313726 1
1 0.498039 0.313726 1
1 0.498039 0.313726 1
1 0.498039 0.313726 1
1 0.498039 0.313726 1
1 0.498039 0.313726 1
1 0.498039 0.313726 1
1 0.498039 0.313726 1
1 0.498039 0.313726 1
1 0.498039 0.313726 1
1 0.498039 0.313726 1
1 0.498039 0.313726 1
1 0.498039 0.313726 1
1 0.498039 0.313726 1
1 0.498039 0.313726 1
1 0.498039 0.313726 1
1 0.498039 0.313726 1
1 0.498039 0.313726 1
1 0.498039 0.313726 1
1 0.498039 0.313726 1
1 0.498039 0.313726 1
1 0.498039 0.313726 1
1 0.498039 0.313726 1
1 0.498039 0.313726 1
1 0.498039 0.313726 1
1 0.498039 0.313726 1
1 0.498039 0.313726 1
1 0.498039 0.313726 1
1 0.498039 0.313726 1
1 0.498039 0.313726 1
1 0.498039 0.313726 1
1 0.498039 0.313726 1
1 0.498039 0.313726 1
1 0.498039 0.313726 1
1 0.498039 0.313726 1
1 0.498039 0.313726 1
1 0.498039 0.313726 1
1 0.498039 0.313726 1
1 0.498039 0.313726 1
1 0.498039 0.313726 1
1 0.498039 0.313726 1
1 0.498039 0.313726 1
1 0.498039 0.313726 1
1 0.498039 0.313726 1
1 0.498039 0.313726 1
1 0.498039 0.313726 1
1 0.498039 0.313726 1
1 0.498039 0.313726 1
1 0.498039 0.313726 1
1 0.498039 0.313726 1
1 0.498039 0.313726 1
1 0.498039 0.313726 1
1 0.498039 0.313726 1
1 0.498039 0.313726 1
1 0.498039 0.313726 1
1 0.498039 0.313726 1
1 0.498039 0.313726 1
1 0.498039 0.313726 1
1 0.498039 0.313726 1
1 0.498039 0.313726 1
1 0.498039 0.313726 1
1 0.498039 0.313726 1
1 0.498039 0.313726 1
1 0.498039 0.313726 1
1 0.498039 0.313726 1
1 0.498039 0.313726 1
1 0.498039 0.313726 1
1 0.498039 0.313726 1
1 0.498039 0.313726 1
1 0.498039 0.313726 1
1 0.498039 0.313726 1
1 0.498039 0.313726 1
1 0.498039 0.313726 1
1 0.498039 0.313726 1
1 0.498039 0.313726 1
1 0.498039 0.313726 1
1 0.498039 0.313726 1
1 0.498039 0.313726 1
1 0.498039 0.313726 1
1 0.498039 0.313726 1
1 0.498039 0.313726 1
1 0.498039 0.313726 1
1 0.498039 0.313726 1
1 0.498039 0.313726 1
1 0.498039 0.313726 1
1 0.498039 0.313726 1
1 0.498039 0.313726 1
1 0.498039 0.313726 1
1 0.498039 0.313726 1
1 0.498039 0.313726 1
1 0.498039 0.313726 1
1 0.498039 0.313726 1
1 0.498039 0.313726 1
1 0.498039 0.313726 1
1 0.498039 0.313726 1
1 0.498039 0.313726 1
1 0.498039 0.313726 1
1 0.498039 0.313726 1
1 0.498039 0.313726 1
1 0.498039 0.313726 1
1 0.498039 0.313726 1
1 0.498039 0.313726 1
1 0.498039 0.313726 1
1 0.498039 0.313726 1
1 0.498039 0.313726 1
1 0.498039 0.313726 1
1 0.498039 0.313726 1
1 0.498039 0.313726 1
1 0.498039 0.313726 1
1 0.498039 0.313726 1
1 0.498039 0.313726 1
1 0.498039 0.313726 1
1 0.498039 0.313726 1
1 0.498039 0.313726 1
1 0.498039 0.313726 1
1 0.498039 0.313726 1
1 0.498039 0.313726 1
1 0.498039 0.313726 1
1 0.498039 0.313726 1
1 0.498039 0.313726 1
1 0.498039 0.313726 1
1 0.498039 0.313726 1
1 0.498039 0.313726 1
1 0.498039 0.313726 1
1 0.498039 0.313726 1
1 0.498039 0.313726 1
1 0.498039 0.313726 1
1 0.498039 0.313726 1
1 0.498039 0.313726 1
1 0.498039 0.313726 1
1 0.498039 0.313726 1
1 0.498039 0.313726 1
1 0.498039 0.313726 1
1 0.498039 0.313726 1
1 0.498039 0.313726 1
1 0.498039 0.313726 1
1 0.498039 0.313726 1
1 0.498039 0.313726 1
1 0.498039 0.313726 1
1 0.498039 0.313726 1
1 0.498039 0.313726 1
1 0.498039 0.313726 1
1 0.498039 0.313726 1
1 0.498039 0.313726 1
1 0.498039 0.313726 1
1 0.498039 0.313726 1
1 0.498039 0.313726 1
1 0.498039 0.313726 1
1 0.498039 0.313726 1
1 0.498039 0.313726 1
1 0.498039 0.313726 1
1 0.498039 0.313726 1
1 0.498039 0.313726 1
1 0.498039 0.313726 1
1 0.498039 0.313726 1
1 0.498039 0.313726 1

