# vtk DataFile Version 3.0
Gocad TSurf to VTK
ASCII
DATASET POLYDATA
POINTS 212 float
21552525.000 4559015.000 12.500
21552600.000 4558910.000 30.000
21552600.000 4559040.000 32.500
21552800.000 4558960.000 110.000
21552600.000 4559170.000 35.000
21552400.000 4558880.000 15.000
21552375.000 4558992.500 1.250
21552450.000 4558747.500 3.750
21552300.000 4558840.000 15.000
21552600.000 4558770.000 15.000
21552500.000 4558615.000 -7.500
21552675.000 4558785.000 40.000
21552600.000 4558630.000 0.000
21552825.000 4558822.500 100.000
21552750.000 4558660.000 50.000
21553050.000 4558875.000 193.750
21553000.000 4558720.000 152.500
21553100.000 4559030.000 235.000
21552975.000 4559130.000 186.250
21553225.000 4558902.500 270.000
21553400.000 4559110.000 420.000
21553100.000 4559165.000 270.000
21553450.000 4558962.500 408.750
21553350.000 4558775.000 305.000
21553500.000 4558815.000 397.500
21553550.000 4558667.500 386.250
21553600.000 4558520.000 375.000
21552900.000 4558410.000 70.000
21552950.000 4558565.000 111.250
21553525.000 4558382.500 343.750
21553000.000 4558300.000 115.000
21553675.000 4558402.500 386.250
21553750.000 4558285.000 397.500
21553450.000 4558245.000 312.500
21553825.000 4558167.500 408.750
21553829.266 4558160.809 409.391
21553833.250 4558135.207 408.469
21553887.203 4558055.547 416.943
21553300.000 4557970.000 250.000
21553200.000 4558080.000 205.000
21553891.703 4558048.895 417.650
21552900.000 4557920.000 210.000
21552900.000 4558042.500 175.000
21552900.000 4558165.000 140.000
21552750.000 4558135.000 90.000
21552500.000 4557870.000 210.000
21552900.000 4558287.500 105.000
21552675.000 4558242.500 30.000
21552550.000 4558110.000 90.000
21552875.000 4558547.500 80.000
21552600.000 4558490.000 -15.000
21552850.000 4558685.000 90.000
21552350.000 4558575.000 0.000
21552375.000 4558442.500 -7.500
21552200.000 4558545.000 12.500
21552000.000 4558780.000 40.000
21552300.000 4558427.500 -1.250
21552000.000 4558375.000 62.500
21552400.000 4558310.000 -15.000
21552000.000 4558240.000 70.000
21552425.000 4558200.000 41.250
21552125.000 4558147.500 105.000
21552250.000 4558055.000 140.000
21551875.000 4558117.500 153.750
21551123.188 4558085.277 322.372
21551105.375 4558096.859 320.495
21551231.859 4558014.598 333.830
21551340.109 4557944.195 345.243
21551401.281 4557904.398 351.693
21551418.359 4557895.918 352.247
21551625.000 4557872.500 321.250
21551504.344 4557853.195 355.034
21552475.000 4557980.000 153.750
21551571.328 4557819.910 357.205
21551707.172 4557774.859 364.601
21552450.000 4558090.000 97.500
21552525.000 4557990.000 150.000
21551054.344 4558157.430 317.397
21551100.000 4558222.500 290.000
21550988.844 4558192.328 309.850
21551850.000 4558342.500 80.000
21551550.000 4558547.500 100.000
21550850.000 4558270.000 292.500
21550700.000 4558460.000 235.000
21550855.031 4558263.625 294.429
21550852.891 4558264.512 294.161
21550839.625 4558270.000 292.500
21550700.000 4558365.000 263.750
21550769.438 4558299.031 283.714
21550600.000 4558460.000 235.000
21550575.000 4558547.500 232.500
21550600.000 4558635.000 230.000
21551175.000 4558690.000 138.750
21550550.000 4558635.000 230.000
21550550.000 4558722.500 227.500
21550525.000 4558722.500 227.500
21550500.000 4558810.000 225.000
21551250.000 4559135.000 101.250
21550575.000 4558940.000 217.500
21550950.000 4559265.000 163.750
21551525.000 4559210.000 60.000
21550650.000 4559070.000 210.000
21550725.000 4559200.000 202.500
21550800.000 4559330.000 195.000
21551775.000 4559490.000 40.000
21551900.000 4559630.000 30.000
21552000.000 4559450.000 -5.000
21552100.000 4559680.000 30.000
21552150.000 4559592.500 12.500
21552100.000 4559475.000 -5.000
21552300.000 4559637.500 12.500
21552300.000 4559535.000 -5.000
21552300.000 4559740.000 30.000
21552450.000 4559585.000 35.000
21552600.000 4559830.000 110.000
21552600.000 4559730.000 92.500
21552600.000 4559530.000 57.500
21552725.000 4559765.000 176.250
21553000.000 4559960.000 365.000
21553025.000 4559862.500 367.500
21552850.000 4559700.000 242.500
21553050.000 4559765.000 370.000
21553075.000 4559667.500 372.500
21553100.000 4559570.000 375.000
21552600.000 4559430.000 40.000
21552850.000 4559230.000 137.500
21552600.000 4559300.000 37.500
21553100.000 4559435.000 340.000
21553175.000 4559455.000 386.250
21553250.000 4559340.000 397.500
21553325.000 4559225.000 408.750
21552750.000 4559077.500 92.500
21552700.000 4559195.000 75.000
21552450.000 4559120.000 -5.000
21552300.000 4559330.000 -40.000
21552300.000 4559207.500 -26.250
21552525.000 4559507.500 37.500
21552250.000 4559417.500 -22.500
21552100.000 4559372.500 -22.500
21552100.000 4559270.000 -40.000
21552150.000 4559162.500 -26.250
21552300.000 4559085.000 -12.500
21552075.000 4559147.500 -20.000
21552200.000 4559055.000 -12.500
21551700.000 4558925.000 55.000
21552050.000 4559025.000 0.000
21552250.000 4558947.500 1.250
21552200.000 4559505.000 -5.000
21553800.000 4557365.000 357.500
21554000.000 4557510.000 295.000
21554025.000 4557445.000 291.250
21554150.000 4557385.000 287.500
21554000.000 4557307.500 302.500
21553488.969 4557438.867 437.201
21553497.828 4557395.219 437.360
21553483.281 4557466.941 437.098
21553508.875 4557340.738 437.558
21553509.484 4557337.746 437.569
21553700.000 4557292.500 388.750
21553511.938 4557325.680 437.613
21553550.000 4557280.000 430.000
21553600.000 4557220.000 420.000
21554000.000 4557240.000 305.000
21554075.000 4557315.000 283.750
21554050.000 4557380.000 287.500
21554100.000 4557250.000 280.000
21554125.000 4557317.500 283.750
21554300.000 4557260.000 305.000
21554275.000 4557325.000 302.500
21554350.000 4557400.000 312.500
21554250.000 4557390.000 300.000
21554625.000 4557345.000 406.250
21554475.000 4557475.000 348.750
21554700.000 4557280.000 435.000
21554700.000 4557350.000 431.250
21554700.000 4557420.000 427.500
21554775.000 4557357.500 491.250
21554750.000 4557425.000 467.500
21554786.906 4557325.375 502.554
21554788.359 4557288.836 505.693
21554725.000 4557492.500 443.750
21554700.000 4557560.000 420.000
21554400.000 4557540.000 320.000
21554200.000 4557520.000 295.000
21554225.000 4557455.000 297.500
21552400.000 4557150.000 295.000
21552375.000 4557207.500 295.000
21552450.000 4557207.500 313.750
21552325.000 4557322.500 295.000
21552500.000 4557150.000 320.000
21552286.859 4557176.871 328.941
21552268.969 4557201.441 331.355
21552321.672 4557146.082 326.332
21552245.047 4557253.816 336.979
21552250.000 4557260.000 335.000
21552200.000 4557255.000 335.000
21552275.000 4557320.000 315.000
21552300.000 4557380.000 295.000
21552200.000 4557370.000 295.000
21552198.203 4557255.508 335.612
21552198.828 4557254.883 335.557
21552121.969 4557332.281 342.473
21552094.938 4557359.492 344.904
21552199.422 4557254.281 335.503
21552200.000 4557253.703 335.451
21552563.391 4557389.680 364.348
21552563.734 4557397.582 365.329
21552506.641 4557284.156 349.491
21552515.844 4557251.941 345.847
21552515.172 4557211.844 340.903
21552519.406 4557198.531 339.412
21552500.000 4557150.000 332.804

POLYGONS 324 1296
3 4 131 132
3 55 8 145
3 58 61 60
3 91 90 83
3 124 123 120
3 63 66 67
3 117 115 116
3 49 50 47
3 27 30 29
3 122 121 120
3 127 125 21
3 142 143 140
3 136 113 137
3 27 26 23
3 3 17 18
3 60 48 47
3 97 100 99
3 66 63 64
3 1 5 7
3 48 44 47
3 6 141 146
3 103 99 104
3 123 124 125
3 92 81 97
3 82 78 81
3 42 44 41
3 13 14 51
3 28 51 49
3 81 144 97
3 125 18 21
3 26 27 29
3 54 52 8
3 132 125 126
3 136 124 116
3 55 54 8
3 11 3 1
3 96 94 92
3 127 129 128
3 139 138 106
3 58 60 47
3 130 129 21
3 80 57 55
3 18 17 21
3 45 44 76
3 12 9 10
3 41 44 45
3 116 124 120
3 3 18 131
3 108 107 106
3 109 137 147
3 33 32 29
3 84 82 85
3 11 1 9
3 5 8 7
3 37 36 33
3 60 62 75
3 112 110 113
3 78 82 84
3 92 83 81
3 108 147 111
3 82 87 86
3 29 30 33
3 4 133 0
3 60 61 62
3 144 100 97
3 94 91 92
3 42 43 44
3 93 91 94
3 14 13 11
3 115 114 113
3 51 16 13
3 17 20 21
3 8 5 146
3 126 133 4
3 110 111 113
3 125 124 126
3 138 109 106
3 56 52 54
3 145 143 142
3 144 55 145
3 71 70 69
3 69 63 68
3 30 46 43
3 72 75 62
3 56 57 59
3 68 63 67
3 73 70 71
3 10 9 7
3 2 131 4
3 5 1 0
3 82 86 85
3 83 87 82
3 54 57 56
3 28 16 51
3 23 16 28
3 81 55 144
3 131 125 132
3 57 80 59
3 70 45 62
3 6 133 141
3 74 45 73
3 110 108 111
3 63 59 64
3 24 22 23
3 103 102 99
3 39 38 33
3 22 20 19
3 90 89 83
3 105 103 104
3 53 52 56
3 134 135 133
3 45 70 73
3 78 80 81
3 139 134 138
3 4 132 126
3 13 3 11
3 25 24 23
3 142 144 145
3 104 99 100
3 113 136 116
3 12 10 50
3 106 109 108
3 1 3 2
3 141 143 146
3 9 1 7
3 19 20 17
3 76 72 45
3 80 78 59
3 75 72 76
3 111 147 137
3 114 112 113
3 8 146 145
3 135 141 133
3 0 1 2
3 28 49 27
3 119 117 120
3 107 105 106
3 101 98 99
3 127 123 125
3 70 62 63
3 23 22 19
3 0 133 6
3 19 17 15
3 100 139 106
3 57 54 55
3 10 52 50
3 51 14 49
3 41 38 39
3 138 137 109
3 35 34 33
3 46 47 44
3 10 7 52
3 53 56 58
3 134 124 136
3 97 96 92
3 120 117 116
3 83 82 81
3 2 3 131
3 48 76 44
3 81 80 55
3 42 41 39
3 33 30 39
3 139 142 140
3 129 127 21
3 11 12 14
3 106 104 100
3 144 139 100
3 142 139 144
3 19 16 23
3 124 134 133
3 15 17 3
3 70 63 69
3 29 32 31
3 27 49 47
3 138 134 137
3 135 140 141
3 123 122 120
3 48 75 76
3 102 101 99
3 26 25 23
3 15 3 13
3 109 147 108
3 123 127 128
3 91 83 92
3 134 139 135
3 78 84 79
3 30 43 39
3 113 111 137
3 14 12 50
3 78 79 77
3 53 58 50
3 134 136 137
3 115 113 116
3 86 87 88
3 63 62 61
3 140 143 141
3 59 78 77
3 5 6 146
3 145 146 143
3 36 35 33
3 64 59 65
3 75 48 60
3 50 58 47
3 139 140 135
3 96 95 94
3 43 42 39
3 37 33 38
3 45 72 62
3 59 58 56
3 26 29 31
3 98 96 97
3 118 114 117
3 52 53 50
3 5 0 6
3 27 47 46
3 18 125 131
3 126 124 133
3 119 120 121
3 30 27 46
3 59 63 61
3 114 115 117
3 4 0 2
3 33 34 32
3 28 27 23
3 87 83 89
3 93 90 91
3 14 50 49
3 118 117 119
3 112 107 110
3 16 15 13
3 19 15 16
3 37 38 40
3 46 44 43
3 107 108 110
3 105 104 106
3 95 93 94
3 98 97 99
3 11 9 12
3 21 20 130
3 65 59 77
3 61 58 59
3 52 7 8
3 167 168 169
3 181 180 175
3 173 167 171
3 172 175 171
3 162 158 152
3 169 172 171
3 171 167 169
3 169 170 184
3 177 175 180
3 162 152 163
3 170 151 184
3 150 149 151
3 171 175 174
3 161 160 158
3 149 183 151
3 167 166 168
3 173 174 176
3 173 171 174
3 182 172 169
3 163 164 166
3 168 170 169
3 176 174 177
3 154 153 148
3 152 158 148
3 174 175 177
3 157 148 158
3 163 152 164
3 183 182 169
3 158 160 159
3 148 149 150
3 184 183 169
3 165 163 166
3 157 156 148
3 182 181 172
3 162 161 158
3 183 184 151
3 167 165 166
3 152 148 150
3 172 181 175
3 179 173 178
3 164 150 151
3 151 170 168
3 150 164 152
3 173 176 178
3 165 162 163
3 157 158 159
3 153 155 149
3 156 154 148
3 166 151 168
3 164 151 166
3 153 149 148
3 194 196 188
3 201 202 198
3 194 193 195
3 187 209 189
3 196 194 195
3 191 193 186
3 185 190 186
3 203 200 195
3 187 186 188
3 198 197 196
3 205 197 206
3 200 199 195
3 186 193 194
3 189 185 187
3 199 201 198
3 190 191 186
3 208 187 188
3 204 203 195
3 196 197 188
3 199 198 195
3 209 210 189
3 186 194 188
3 198 196 195
3 185 186 187
3 205 207 188
3 193 204 195
3 208 209 187
3 210 211 189
3 190 185 192
3 207 208 188
3 205 188 197

POINT_DATA 212
COLOR_SCALARS GocadColor 4
0.313725 0.623529 0.411765 1
0.313725 0.623529 0.411765 1
0.313725 0.623529 0.411765 1
0.313725 0.623529 0.411765 1
0.313725 0.623529 0.411765 1
0.313725 0.623529 0.411765 1
0.313725 0.623529 0.411765 1
0.313725 0.623529 0.411765 1
0.313725 0.623529 0.411765 1
0.313725 0.623529 0.411765 1
0.313725 0.623529 0.411765 1
0.313725 0.623529 0.411765 1
0.313725 0.623529 0.411765 1
0.313725 0.623529 0.411765 1
0.313725 0.623529 0.411765 1
0.313725 0.623529 0.411765 1
0.313725 0.623529 0.411765 1
0.313725 0.623529 0.411765 1
0.313725 0.623529 0.411765 1
0.313725 0.623529 0.411765 1
0.313725 0.623529 0.411765 1
0.313725 0.623529 0.411765 1
0.313725 0.623529 0.411765 1
0.313725 0.623529 0.411765 1
0.313725 0.623529 0.411765 1
0.313725 0.623529 0.411765 1
0.313725 0.623529 0.411765 1
0.313725 0.623529 0.411765 1
0.313725 0.623529 0.411765 1
0.313725 0.623529 0.411765 1
0.313725 0.623529 0.411765 1
0.313725 0.623529 0.411765 1
0.313725 0.623529 0.411765 1
0.313725 0.623529 0.411765 1
0.313725 0.623529 0.411765 1
0.313725 0.623529 0.411765 1
0.313725 0.623529 0.411765 1
0.313725 0.623529 0.411765 1
0.313725 0.623529 0.411765 1
0.313725 0.623529 0.411765 1
0.313725 0.623529 0.411765 1
0.313725 0.623529 0.411765 1
0.313725 0.623529 0.411765 1
0.313725 0.623529 0.411765 1
0.313725 0.623529 0.411765 1
0.313725 0.623529 0.411765 1
0.313725 0.623529 0.411765 1
0.313725 0.623529 0.411765 1
0.313725 0.623529 0.411765 1
0.313725 0.623529 0.411765 1
0.313725 0.623529 0.411765 1
0.313725 0.623529 0.411765 1
0.313725 0.623529 0.411765 1
0.313725 0.623529 0.411765 1
0.313725 0.623529 0.411765 1
0.313725 0.623529 0.411765 1
0.313725 0.623529 0.411765 1
0.313725 0.623529 0.411765 1
0.313725 0.623529 0.411765 1
0.313725 0.623529 0.411765 1
0.313725 0.623529 0.411765 1
0.313725 0.623529 0.411765 1
0.313725 0.623529 0.411765 1
0.313725 0.623529 0.411765 1
0.313725 0.623529 0.411765 1
0.313725 0.623529 0.411765 1
0.313725 0.623529 0.411765 1
0.313725 0.623529 0.411765 1
0.313725 0.623529 0.411765 1
0.313725 0.623529 0.411765 1
0.313725 0.623529 0.411765 1
0.313725 0.623529 0.411765 1
0.313725 0.623529 0.411765 1
0.313725 0.623529 0.411765 1
0.313725 0.623529 0.411765 1
0.313725 0.623529 0.411765 1
0.313725 0.623529 0.411765 1
0.313725 0.623529 0.411765 1
0.313725 0.623529 0.411765 1
0.313725 0.623529 0.411765 1
0.313725 0.623529 0.411765 1
0.313725 0.623529 0.411765 1
0.313725 0.623529 0.411765 1
0.313725 0.623529 0.411765 1
0.313725 0.623529 0.411765 1
0.313725 0.623529 0.411765 1
0.313725 0.623529 0.411765 1
0.313725 0.623529 0.411765 1
0.313725 0.623529 0.411765 1
0.313725 0.623529 0.411765 1
0.313725 0.623529 0.411765 1
0.313725 0.623529 0.411765 1
0.313725 0.623529 0.411765 1
0.313725 0.623529 0.411765 1
0.313725 0.623529 0.411765 1
0.313725 0.623529 0.411765 1
0.313725 0.623529 0.411765 1
0.313725 0.623529 0.411765 1
0.313725 0.623529 0.411765 1
0.313725 0.623529 0.411765 1
0.313725 0.623529 0.411765 1
0.313725 0.623529 0.411765 1
0.313725 0.623529 0.411765 1
0.313725 0.623529 0.411765 1
0.313725 0.623529 0.411765 1
0.313725 0.623529 0.411765 1
0.313725 0.623529 0.411765 1
0.313725 0.623529 0.411765 1
0.313725 0.623529 0.411765 1
0.313725 0.623529 0.411765 1
0.313725 0.623529 0.411765 1
0.313725 0.623529 0.411765 1
0.313725 0.623529 0.411765 1
0.313725 0.623529 0.411765 1
0.313725 0.623529 0.411765 1
0.313725 0.623529 0.411765 1
0.313725 0.623529 0.411765 1
0.313725 0.623529 0.411765 1
0.313725 0.623529 0.411765 1
0.313725 0.623529 0.411765 1
0.313725 0.623529 0.411765 1
0.313725 0.623529 0.411765 1
0.313725 0.623529 0.411765 1
0.313725 0.623529 0.411765 1
0.313725 0.623529 0.411765 1
0.313725 0.623529 0.411765 1
0.313725 0.623529 0.411765 1
0.313725 0.623529 0.411765 1
0.313725 0.623529 0.411765 1
0.313725 0.623529 0.411765 1
0.313725 0.623529 0.411765 1
0.313725 0.623529 0.411765 1
0.313725 0.623529 0.411765 1
0.313725 0.623529 0.411765 1
0.313725 0.623529 0.411765 1
0.313725 0.623529 0.411765 1
0.313725 0.623529 0.411765 1
0.313725 0.623529 0.411765 1
0.313725 0.623529 0.411765 1
0.313725 0.623529 0.411765 1
0.313725 0.623529 0.411765 1
0.313725 0.623529 0.411765 1
0.313725 0.623529 0.411765 1
0.313725 0.623529 0.411765 1
0.313725 0.623529 0.411765 1
0.313725 0.623529 0.411765 1
0.313725 0.623529 0.411765 1
0.313725 0.623529 0.411765 1
0.313725 0.623529 0.411765 1
0.313725 0.623529 0.411765 1
0.313725 0.623529 0.411765 1
0.313725 0.623529 0.411765 1
0.313725 0.623529 0.411765 1
0.313725 0.623529 0.411765 1
0.313725 0.623529 0.411765 1
0.313725 0.623529 0.411765 1
0.313725 0.623529 0.411765 1
0.313725 0.623529 0.411765 1
0.313725 0.623529 0.411765 1
0.313725 0.623529 0.411765 1
0.313725 0.623529 0.411765 1
0.313725 0.623529 0.411765 1
0.313725 0.623529 0.411765 1
0.313725 0.623529 0.411765 1
0.313725 0.623529 0.411765 1
0.313725 0.623529 0.411765 1
0.313725 0.623529 0.411765 1
0.313725 0.623529 0.411765 1
0.313725 0.623529 0.411765 1
0.313725 0.623529 0.411765 1
0.313725 0.623529 0.411765 1
0.313725 0.623529 0.411765 1
0.313725 0.623529 0.411765 1
0.313725 0.623529 0.411765 1
0.313725 0.623529 0.411765 1
0.313725 0.623529 0.411765 1
0.313725 0.623529 0.411765 1
0.313725 0.623529 0.411765 1
0.313725 0.623529 0.411765 1
0.313725 0.623529 0.411765 1
0.313725 0.623529 0.411765 1
0.313725 0.623529 0.411765 1
0.313725 0.623529 0.411765 1
0.313725 0.623529 0.411765 1
0.313725 0.623529 0.411765 1
0.313725 0.623529 0.411765 1
0.313725 0.623529 0.411765 1
0.313725 0.623529 0.411765 1
0.313725 0.623529 0.411765 1
0.313725 0.623529 0.411765 1
0.313725 0.623529 0.411765 1
0.313725 0.623529 0.411765 1
0.313725 0.623529 0.411765 1
0.313725 0.623529 0.411765 1
0.313725 0.623529 0.411765 1
0.313725 0.623529 0.411765 1
0.313725 0.623529 0.411765 1
0.313725 0.623529 0.411765 1
0.313725 0.623529 0.411765 1
0.313725 0.623529 0.411765 1
0.313725 0.623529 0.411765 1
0.313725 0.623529 0.411765 1
0.313725 0.623529 0.411765 1
0.313725 0.623529 0.411765 1
0.313725 0.623529 0.411765 1
0.313725 0.623529 0.411765 1
0.313725 0.623529 0.411765 1
0.313725 0.623529 0.411765 1
0.313725 0.623529 0.411765 1
0.313725 0.623529 0.411765 1
0.313725 0.623529 0.411765 1
0.313725 0.623529 0.411765 1

