# vtk DataFile Version 3.0
Gocad TSurf to VTK
ASCII
DATASET POLYDATA
POINTS 435 float
21590425.000 4572866.250 -385.625
21590800.000 4573220.000 -622.500
21590650.000 4573055.000 -513.750
21590937.500 4573337.500 -695.000
21590550.000 4572945.000 -441.250
21589900.000 4572700.000 -250.000
21590900.000 4573330.000 -695.000
21589837.500 4572493.750 -75.000
21589800.000 4572370.000 30.000
21589300.000 4572250.000 140.000
21589737.500 4572355.000 43.750
21589837.500 4572685.000 -297.500
21589900.000 4572790.000 -480.000
21589350.000 4572415.000 -245.000
21589387.500 4572538.750 -533.750
21589262.500 4572321.250 -158.125
21589250.000 4572345.000 -257.500
21589125.000 4572215.000 -111.250
21589025.000 4571997.500 95.000
21589000.000 4572050.000 -55.000
21589062.500 4571918.750 320.000
21588987.500 4571888.750 293.750
21589150.000 4571942.500 443.750
21589075.000 4571892.500 395.000
21589025.000 4571872.500 377.500
21589087.500 4571866.250 470.000
21589100.000 4571840.000 545.000
21589012.500 4571817.500 448.750
21588925.000 4571795.000 352.500
21588825.000 4571730.000 408.750
21588862.500 4571720.000 545.000
21588875.000 4571795.000 246.875
21588687.500 4571675.000 340.625
21588950.000 4571905.000 210.000
21588850.000 4571820.000 147.500
21588912.500 4571921.250 126.250
21588875.000 4571937.500 42.500
21588787.500 4571815.000 48.125
21588750.000 4571750.000 160.000
21588725.000 4571810.000 -51.250
21588725.000 4571765.000 48.125
21588800.000 4571970.000 -125.000
21588662.500 4571805.000 -150.625
21588800.000 4572030.000 -278.750
21588925.000 4572113.750 -311.875
21588687.500 4571988.750 -323.750
21588550.000 4571910.000 -452.500
21588800.000 4572063.750 -355.625
21588875.000 4572156.250 -483.125
21589075.000 4572196.250 -280.000
21589150.000 4572335.000 -505.000
21589150.000 4572290.000 -292.500
21589162.500 4572327.500 -383.125
21589237.500 4572368.750 -356.875
21589250.000 4572625.000 -630.000
21589100.000 4572550.000 -630.000
21589400.000 4572580.000 -630.000
21589312.500 4572677.500 -686.875
21589975.000 4572965.000 -805.000
21589637.500 4572827.500 -797.500
21590025.000 4572936.250 -708.125
21590600.000 4573310.000 -1020.000
21590525.000 4573161.250 -700.625
21590675.000 4573315.000 -938.750
21590775.000 4573273.750 -696.875
21590787.500 4573322.500 -816.875
21590825.000 4573325.000 -776.250
21590750.000 4573320.000 -857.500
21590712.500 4573317.500 -898.125
21590862.500 4573327.500 -735.625
21590637.500 4573312.500 -979.375
21590550.000 4573298.750 -1028.750
21590400.000 4573265.000 -1055.000
21590587.500 4573317.500 -1040.625
21590575.000 4573325.000 -1061.250
21590562.500 4573332.500 -1081.875
21590550.000 4573340.000 -1102.500
21590537.500 4573347.500 -1123.125
21590250.000 4573231.250 -1081.250
21590087.500 4573092.500 -947.500
21590525.000 4573355.000 -1143.750
21590512.500 4573362.500 -1164.375
21590500.000 4573370.000 -1185.000
21590200.000 4573220.000 -1090.000
21589600.000 4572830.000 -825.000
21589600.000 4572820.000 -810.000
21589400.000 4572730.000 -740.000
21589400.000 4572712.500 -726.250
21589300.000 4572690.000 -695.000
21589200.000 4572640.000 -630.000
21588850.000 4572377.500 -716.250
21588800.000 4572370.000 -725.000
21588800.000 4572360.000 -725.000
21588537.500 4572183.750 -726.875
21588800.000 4572228.750 -738.125
21588500.000 4572180.000 -725.000
21588500.000 4572160.000 -716.250
21588500.000 4572100.000 -690.000
21588450.000 4572100.000 -690.000
21588412.500 4572160.000 -716.250
21588400.000 4572170.000 -725.000
21588400.000 4572180.000 -725.000
21588250.000 4571982.500 -595.625
21588450.000 4572012.500 -643.125
21588100.000 4571960.000 -560.000
21587987.500 4571821.250 -417.500
21587500.000 4571600.000 -165.000
21587537.500 4571598.750 -166.875
21587612.500 4571596.250 -170.625
21587350.000 4571452.500 -1.250
21586800.000 4571220.000 390.000
21586812.500 4571193.750 402.500
21586812.500 4571193.750 402.500
21586825.000 4571167.500 415.000
21586837.500 4571141.250 427.500
21587200.000 4571305.000 162.500
21586850.000 4571115.000 440.000
21587687.500 4571593.750 -174.375
21587912.500 4571728.750 -322.500
21587825.000 4571566.250 -157.500
21586900.000 4571010.000 490.000
21588500.000 4572020.000 -655.000
21588475.000 4571930.000 -547.500
21588487.500 4572038.750 -663.750
21588500.000 4572040.000 -663.750
21588537.500 4572013.750 -588.750
21588500.000 4571870.000 -452.500
21588437.500 4571795.000 -386.250
21588500.000 4571832.500 -401.875
21588500.000 4571795.000 -351.250
21588425.000 4571750.000 -332.500
21588500.000 4571757.500 -300.625
21588325.000 4571651.250 -219.375
21588100.000 4571625.000 -202.500
21588412.500 4571705.000 -278.750
21588487.500 4571682.500 -128.750
21588575.000 4571735.000 -150.625
21588587.500 4571827.500 -300.625
21588662.500 4571727.500 63.750
21588650.000 4571750.000 -51.250
21588137.500 4571455.000 68.125
21588550.000 4571620.000 272.500
21587975.000 4571423.750 -22.500
21587437.500 4571000.000 545.000
21587200.000 4570880.000 545.000
21587675.000 4571120.000 545.000
21587912.500 4571240.000 545.000
21588150.000 4571360.000 545.000
21588387.500 4571480.000 545.000
21588625.000 4571600.000 545.000
21587275.000 4570968.750 454.375
21587500.000 4571235.000 182.500
21587162.500 4570896.250 538.125
21587125.000 4570912.500 531.250
21587087.500 4570928.750 524.375
21587050.000 4570945.000 517.500
21587012.500 4570961.250 510.625
21587650.000 4571412.500 1.250
21586975.000 4570977.500 503.750
21587900.000 4571495.000 -90.000
21586937.500 4570993.750 496.875
21586887.500 4571036.250 477.500
21586875.000 4571062.500 465.000
21586862.500 4571088.750 452.500
21586862.500 4571088.750 452.500
21589687.500 4572133.750 232.500
21589850.000 4572367.500 28.125
21589150.000 4571827.500 548.125
21589200.000 4571815.000 551.250
21589250.000 4571802.500 554.375
21589650.000 4572055.000 300.000
21589300.000 4571790.000 557.500
21589350.000 4571777.500 560.625
21589400.000 4571765.000 563.750
21589537.500 4571818.750 502.500
21590150.000 4572352.500 16.875
21589450.000 4571752.500 566.875
21589500.000 4571740.000 570.000
21590200.000 4572350.000 15.000
21589587.500 4571775.000 516.250
21590387.500 4572687.500 -247.500
21590800.000 4572970.000 -460.000
21590762.500 4572960.000 -453.125
21590287.500 4572397.500 -33.750
21590837.500 4572880.000 -428.125
21590200.000 4572226.250 61.875
21590800.000 4572487.500 -215.000
21590200.000 4572061.250 124.375
21589575.000 4571627.500 592.500
21589625.000 4571552.500 607.500
21589525.000 4571702.500 577.500
21589550.000 4571662.500 585.000
21589525.000 4571701.250 577.500
21589575.000 4571623.750 592.500
21589600.000 4571585.000 600.000
21589625.000 4571546.250 607.500
21589630.180 4571543.168 609.055
21589630.102 4571543.961 609.029
21589630.828 4571537.219 609.248
21589629.984 4571545.027 608.995
21589716.703 4571460.754 613.108
21589735.852 4571454.340 613.644
21589800.000 4571480.000 584.375
21590400.000 4571720.000 310.625
21589759.680 4571436.457 614.614
21589801.164 4571405.328 616.301
21589808.016 4571401.426 616.045
21589830.563 4571385.262 615.318
21589850.734 4571377.086 614.451
21589926.242 4571334.063 611.634
21590003.453 4571290.070 608.753
21590045.813 4571277.266 602.278
21590052.898 4571272.602 600.843
21590450.000 4571667.500 306.875
21590700.000 4572245.000 -55.000
21590063.781 4571250.383 596.539
21590400.000 4571575.000 348.750
21590762.500 4572000.000 133.750
21590065.469 4571246.941 595.873
21590076.117 4571225.207 591.663
21590086.773 4571203.449 587.449
21590097.445 4571181.676 583.231
21590108.125 4571159.883 579.010
21590250.000 4571297.500 474.375
21590113.125 4571149.672 577.032
21590122.141 4571131.277 573.469
21590131.164 4571112.852 569.899
21590140.211 4571094.391 566.324
21590700.000 4571770.000 250.000
21590161.211 4571096.512 564.295
21590250.633 4571135.484 559.831
21590700.000 4571480.000 440.000
21591050.000 4571770.000 180.000
21590328.609 4571168.742 555.837
21590461.211 4571225.293 549.046
21590518.055 4571249.535 546.135
21590569.180 4571274.316 543.932
21590700.000 4571331.336 537.402
21590744.055 4571326.383 531.834
21591112.500 4571848.750 138.125
21591162.500 4572163.750 10.625
21590746.961 4571329.242 531.911
21590786.094 4571327.496 527.335
21591100.000 4571540.000 322.500
21591187.500 4571818.750 129.375
21590843.969 4571315.977 519.322
21590886.141 4571311.883 514.084
21590922.906 4571308.082 509.484
21591051.547 4571301.383 489.046
21591071.883 4571300.863 485.896
21591100.000 4571310.000 475.000
21591450.000 4571965.000 7.500
21591837.500 4572273.750 -217.500
21591650.000 4572310.000 -185.000
21591212.500 4571371.250 410.625
21591875.000 4572025.000 -111.875
21591150.000 4571290.000 471.250
21591150.000 4571290.000 471.250
21591159.094 4571286.359 470.568
21591200.992 4571278.012 463.000
21591159.094 4571286.359 470.568
21591243.984 4571269.438 455.233
21591325.000 4571432.500 346.250
21591256.930 4571266.859 452.895
21591303.406 4571257.594 444.500
21591334.531 4571251.391 438.877
21591345.516 4571249.930 436.509
21591383.000 4571244.953 428.422
21591550.000 4571555.000 217.500
21591420.539 4571239.973 420.326
21591900.000 4571980.000 -97.500
21591431.281 4571239.422 418.091
21591441.875 4571237.141 415.723
21591887.500 4571738.750 24.375
21591975.000 4571845.000 -54.375
21591496.109 4571229.941 404.026
21591548.070 4571223.043 392.817
21591555.438 4571222.063 391.229
21592000.000 4571800.000 -40.000
21591604.531 4571190.020 378.237
21591614.844 4571183.289 375.509
21592100.000 4571530.000 7.500
21592087.500 4571812.500 -81.875
21591738.539 4571124.727 344.863
21591791.328 4571097.855 331.608
21591844.797 4571070.637 318.181
21591865.891 4571054.102 312.339
21592112.500 4571246.250 103.750
21592150.000 4571395.000 31.250
21591915.234 4571029.262 299.975
21591965.617 4571003.898 287.350
21591985.523 4570993.875 282.362
21592011.344 4570961.887 284.707
21592030.109 4570934.730 286.506
21592087.500 4570943.750 251.250
21592262.500 4571232.500 32.500
21592175.000 4570957.500 197.500
21592262.500 4570971.250 143.750
21592350.000 4570985.000 90.000
21592512.500 4571122.500 -57.500
21592700.000 4571685.000 -312.500
21592437.500 4570998.750 36.250
21592525.000 4571012.500 -17.500
21592612.500 4571026.250 -71.250
21592700.000 4571040.000 -125.000
21592700.000 4571362.500 -218.750
21593200.000 4571750.000 -460.000
21592950.000 4571825.000 -417.500
21593662.500 4572477.500 -830.000
21593387.500 4572312.500 -700.000
21593800.000 4572560.000 -895.000
21593762.500 4572611.250 -915.625
21593725.000 4572662.500 -936.250
21593687.500 4572713.750 -956.875
21593650.000 4572765.000 -977.500
21593612.500 4572816.250 -998.125
21592837.500 4571982.500 -440.000
21593575.000 4572867.500 -1018.750
21593537.500 4572918.750 -1039.375
21593500.000 4572970.000 -1060.000
21592700.000 4571900.000 -375.000
21592825.000 4571862.500 -396.250
21592812.500 4572342.500 -570.000
21593437.500 4572983.750 -1039.375
21593125.000 4573052.500 -936.250
21593475.000 4573037.500 -1073.750
21593450.000 4573105.000 -1087.500
21593425.000 4573172.500 -1101.250
21593400.000 4573240.000 -1115.000
21593375.000 4573307.500 -1128.750
21593350.000 4573375.000 -1142.500
21593325.000 4573442.500 -1156.250
21593000.000 4573080.000 -895.000
21593300.000 4573510.000 -1170.000
21592987.500 4573152.500 -915.625
21592937.500 4573080.000 -877.500
21593250.000 4573528.750 -1156.250
21593200.000 4573547.500 -1142.500
21592962.500 4573297.500 -956.875
21593150.000 4573566.250 -1128.750
21593100.000 4573585.000 -1115.000
21592937.500 4573442.500 -998.125
21592562.500 4573080.000 -772.500
21593050.000 4573603.750 -1101.250
21593000.000 4573622.500 -1087.500
21592950.000 4573641.250 -1073.750
21592900.000 4573660.000 -1060.000
21592537.500 4573278.750 -811.250
21592450.000 4573078.750 -742.500
21592862.500 4573653.750 -1040.625
21592825.000 4573647.500 -1021.250
21592787.500 4573641.250 -1001.875
21592750.000 4573635.000 -982.500
21592575.000 4573477.500 -867.500
21592712.500 4573628.750 -963.125
21592675.000 4573622.500 -943.750
21592587.500 4573543.750 -886.250
21592200.000 4573072.500 -680.000
21592637.500 4573616.250 -924.375
21592600.000 4573610.000 -905.000
21592100.000 4573070.000 -655.000
21592537.500 4573590.000 -891.250
21592100.000 4573212.500 -707.500
21592050.000 4573055.000 -626.875
21592475.000 4573570.000 -877.500
21592412.500 4573550.000 -863.750
21592350.000 4573530.000 -850.000
21592100.000 4573402.500 -777.500
21592287.500 4573510.000 -836.250
21592225.000 4573490.000 -822.500
21592162.500 4573470.000 -808.750
21592100.000 4573450.000 -795.000
21591712.500 4573006.250 -468.750
21592062.500 4573443.750 -788.125
21591750.000 4573175.000 -585.000
21591475.000 4572897.500 -430.000
21592025.000 4573437.500 -781.250
21591987.500 4573431.250 -774.375
21591950.000 4573425.000 -767.500
21591775.000 4573287.500 -662.500
21591912.500 4573418.750 -760.625
21591875.000 4573412.500 -753.750
21591837.500 4573406.250 -746.875
21591800.000 4573400.000 -740.000
21591400.000 4572880.000 -430.000
21591400.000 4573056.250 -555.625
21591337.500 4572861.250 -423.125
21591750.000 4573393.750 -743.125
21591700.000 4573387.500 -746.250
21591650.000 4573381.250 -749.375
21591400.000 4573115.000 -597.500
21591600.000 4573375.000 -752.500
21591550.000 4573368.750 -755.625
21591500.000 4573362.500 -758.750
21591400.000 4573291.250 -723.125
21591450.000 4573356.250 -761.875
21591400.000 4573350.000 -765.000
21590937.500 4572802.500 -418.750
21591375.000 4573345.000 -760.000
21591050.000 4573020.000 -550.000
21591125.000 4573165.000 -637.500
21591350.000 4573340.000 -755.000
21591325.000 4573335.000 -750.000
21591300.000 4573330.000 -745.000
21591275.000 4573325.000 -740.000
21591250.000 4573320.000 -735.000
21591225.000 4573315.000 -730.000
21591200.000 4573310.000 -725.000
21590825.000 4573017.500 -489.375
21591175.000 4573315.000 -721.250
21591150.000 4573320.000 -717.500
21590875.000 4573112.500 -548.125
21591125.000 4573325.000 -713.750
21591100.000 4573330.000 -710.000
21591075.000 4573335.000 -706.250
21590950.000 4573255.000 -636.250
21591050.000 4573340.000 -702.500
21591025.000 4573345.000 -698.750
21591000.000 4573350.000 -695.000
21590987.500 4573347.500 -695.000
21590975.000 4573345.000 -695.000
21590962.500 4573342.500 -695.000
21590950.000 4573340.000 -695.000
21591350.000 4572760.000 -343.750
21591225.000 4572460.000 -128.125
21591550.000 4572365.000 -181.250
21591662.500 4572728.750 -341.875
21591600.000 4572360.000 -195.000
21591612.500 4572433.750 -224.375
21592025.000 4572842.500 -530.000
21591912.500 4572501.250 -342.500
21592312.500 4572600.000 -486.875
21592062.500 4571960.000 -129.375
21590912.500 4573332.500 -695.000
21590925.000 4573335.000 -695.000

POLYGONS 642 2568
3 189 188 187
3 151 155 156
3 25 23 22
3 356 359 358
3 132 133 127
3 276 275 273
3 22 20 9
3 370 369 367
3 316 321 320
3 10 8 22
3 51 16 17
3 393 392 390
3 45 43 41
3 8 166 165
3 342 338 335
3 138 139 40
3 125 48 45
3 8 0 4
3 395 393 394
3 49 51 17
3 341 338 342
3 0 8 7
3 9 11 5
3 29 32 31
3 125 46 122
3 306 304 305
3 317 315 316
3 289 286 287
3 174 176 173
3 366 362 367
3 37 34 38
3 199 189 187
3 39 36 37
3 56 87 59
3 426 424 372
3 253 244 427
3 125 121 94
3 255 268 262
3 26 27 25
3 31 21 28
3 189 194 188
3 278 332 322
3 335 432 431
3 9 18 17
3 410 409 408
3 5 6 1
3 218 215 216
3 258 260 256
3 121 122 119
3 165 169 168
3 349 346 347
3 12 11 56
3 44 48 49
3 274 278 273
3 280 278 281
3 201 187 202
3 238 237 232
3 41 19 36
3 135 138 140
3 141 38 32
3 8 10 7
3 348 252 430
3 119 120 115
3 332 331 324
3 411 410 408
3 53 16 51
3 396 395 394
3 204 201 202
3 281 288 287
3 101 95 99
3 390 385 386
3 290 289 287
3 20 21 18
3 11 14 56
3 277 276 273
3 280 279 278
3 115 163 116
3 261 259 254
3 74 73 71
3 103 98 123
3 189 195 194
3 109 108 111
3 129 128 46
3 321 300 320
3 430 252 253
3 384 217 213
3 72 71 58
3 157 119 159
3 216 213 217
3 148 32 149
3 322 320 282
3 245 242 243
3 380 378 379
3 423 217 384
3 313 312 308
3 142 132 135
3 187 186 203
3 41 39 42
3 234 233 231
3 360 359 356
3 227 226 223
3 175 178 174
3 250 251 252
3 322 324 323
3 141 138 38
3 170 171 169
3 1 3 2
3 61 60 58
3 327 326 323
3 46 45 41
3 138 40 38
3 254 256 250
3 125 122 121
3 336 333 334
3 89 88 54
3 291 290 287
3 384 383 379
3 127 129 130
3 124 97 93
3 309 313 308
3 136 131 137
3 183 178 181
3 263 261 262
3 82 81 78
3 68 67 62
3 412 410 411
3 175 174 170
3 28 29 31
3 88 86 87
3 21 24 28
3 337 336 334
3 241 238 239
3 305 300 307
3 424 423 375
3 212 203 213
3 226 225 223
3 222 216 223
3 227 223 228
3 54 14 50
3 56 14 54
3 174 177 176
3 374 375 379
3 150 153 151
3 267 262 268
3 27 28 24
3 323 319 322
3 222 221 216
3 420 2 421
3 251 253 252
3 264 263 262
3 368 366 367
3 184 181 400
3 425 239 240
3 149 32 29
3 70 63 60
3 10 22 9
3 123 121 103
3 170 166 175
3 208 202 203
3 124 121 123
3 199 197 189
3 11 13 14
3 355 356 358
3 259 258 254
3 375 384 379
3 348 347 342
3 5 11 12
3 221 220 216
3 181 407 400
3 266 265 262
3 373 371 372
3 394 390 386
3 230 228 231
3 248 247 243
3 211 210 203
3 60 61 70
3 185 183 186
3 119 122 127
3 206 205 202
3 3 1 434
3 40 39 37
3 270 255 431
3 129 131 130
3 133 132 159
3 75 71 72
3 377 376 374
3 299 295 300
3 188 193 191
3 235 234 231
3 309 314 313
3 40 37 38
3 212 211 203
3 371 367 372
3 223 216 217
3 136 139 138
3 19 49 17
3 52 51 49
3 359 360 361
3 95 92 93
3 307 321 316
3 62 65 64
3 34 33 31
3 230 229 228
3 151 156 157
3 253 251 244
3 262 254 255
3 83 82 78
3 331 332 333
3 240 232 228
3 30 29 27
3 200 199 187
3 251 250 243
3 265 264 262
3 80 77 78
3 94 93 90
3 326 325 323
3 133 119 127
3 378 377 374
3 415 414 411
3 104 100 102
3 9 13 11
3 237 236 231
3 133 159 119
3 95 93 96
3 224 222 223
3 175 166 180
3 43 44 19
3 360 356 357
3 355 353 356
3 341 340 338
3 432 332 278
3 62 12 60
3 319 320 322
3 345 344 341
3 338 334 335
3 308 306 307
3 143 140 145
3 433 434 1
3 18 19 17
3 301 298 299
3 36 18 35
3 9 17 15
3 90 55 50
3 310 308 311
3 274 273 270
3 124 123 97
3 81 80 78
3 214 213 203
3 238 232 239
3 113 108 114
3 79 72 58
3 394 393 390
3 168 167 165
3 130 131 134
3 27 24 25
3 294 295 296
3 24 23 25
3 225 224 223
3 363 360 428
3 418 417 415
3 99 95 98
3 182 181 180
3 428 426 363
3 85 84 59
3 41 42 137
3 283 280 281
3 137 129 46
3 228 424 240
3 178 183 185
3 398 396 397
3 190 191 192
3 352 351 347
3 248 243 249
3 57 87 56
3 107 105 108
3 174 178 177
3 362 363 367
3 120 161 115
3 386 384 214
3 107 108 109
3 159 151 157
3 179 178 185
3 34 31 38
3 69 64 66
3 75 74 71
3 21 33 18
3 50 49 48
3 156 158 157
3 160 120 157
3 298 295 299
3 271 269 270
3 149 29 30
3 229 227 228
3 125 94 48
3 320 288 282
3 403 399 400
3 33 21 31
3 431 255 252
3 24 20 23
3 137 46 41
3 210 209 203
3 374 372 375
3 84 79 59
3 138 141 140
3 105 104 102
3 108 118 117
3 269 267 268
3 353 347 348
3 173 172 170
3 53 51 52
3 111 110 109
3 287 294 293
3 6 433 1
3 371 370 367
3 381 380 379
3 0 1 2
3 350 347 351
3 356 353 357
3 63 62 60
3 309 308 307
3 423 384 375
3 270 269 268
3 13 53 14
3 73 61 71
3 429 357 348
3 166 8 180
3 153 154 151
3 180 4 182
3 223 217 228
3 154 155 151
3 140 142 135
3 77 76 72
3 378 374 379
3 183 184 186
3 161 162 115
3 106 107 109
3 131 129 137
3 103 121 118
3 139 39 40
3 47 44 43
3 63 68 62
3 54 88 57
3 427 360 429
3 373 372 374
3 407 406 400
3 94 124 93
3 431 432 270
3 260 257 256
3 46 126 122
3 261 254 262
3 42 136 137
3 392 391 390
3 219 218 216
3 344 343 341
3 363 426 372
3 308 310 306
3 34 35 33
3 339 337 338
3 335 332 432
3 87 86 59
3 190 188 191
3 102 98 103
3 247 246 243
3 71 61 58
3 295 287 288
3 111 108 113
3 117 119 115
3 4 418 415
3 217 423 424
3 3 422 2
3 389 385 390
3 315 309 316
3 243 250 249
3 220 219 216
3 115 108 117
3 207 206 202
3 328 327 323
3 170 169 165
3 376 373 374
3 60 12 58
3 294 287 295
3 194 193 188
3 118 121 119
3 170 165 166
3 424 375 372
3 2 4 0
3 305 304 299
3 13 16 53
3 41 43 19
3 383 382 379
3 364 361 362
3 150 152 153
3 144 150 142
3 167 26 165
3 88 87 57
3 308 312 311
3 140 143 142
3 258 256 254
3 15 16 13
3 214 384 213
3 143 144 142
3 367 363 372
3 342 335 431
3 409 407 408
3 334 332 335
3 84 83 79
3 33 35 18
3 188 179 187
3 92 91 90
3 389 388 385
3 130 132 127
3 236 235 231
3 350 349 347
3 426 425 424
3 286 285 281
3 120 119 157
3 183 181 184
3 309 307 316
3 37 36 35
3 102 100 98
3 332 324 322
3 96 97 98
3 26 8 165
3 331 330 324
3 105 102 103
3 419 4 2
3 324 329 323
3 413 412 411
3 382 381 379
3 217 424 228
3 215 213 216
3 186 214 203
3 233 230 231
3 416 414 415
3 287 286 281
3 62 64 12
3 8 26 22
3 136 135 131
3 53 50 14
3 425 427 239
3 116 163 164
3 316 319 318
3 32 38 31
3 365 364 362
3 77 72 78
3 29 28 27
3 65 66 64
3 414 413 411
3 292 291 287
3 202 187 203
3 65 62 67
3 279 277 278
3 278 282 281
3 298 297 295
3 44 49 19
3 205 204 202
3 98 97 123
3 334 333 332
3 347 346 342
3 21 20 24
3 100 101 99
3 146 145 140
3 179 185 187
3 301 299 302
3 303 302 299
3 403 402 399
3 50 52 49
3 12 56 58
3 428 427 425
3 402 401 399
3 422 421 2
3 8 4 180
3 246 245 243
3 128 126 46
3 54 57 56
3 0 5 1
3 142 150 151
3 384 386 385
3 106 104 105
3 256 257 250
3 255 254 252
3 329 324 330
3 128 129 127
3 107 106 105
3 346 345 341
3 369 368 367
3 397 394 386
3 360 427 428
3 432 274 270
3 408 181 182
3 36 19 18
3 83 78 79
3 186 397 386
3 115 116 114
3 383 384 385
3 178 175 180
3 141 146 140
3 399 397 184
3 343 340 341
3 64 6 5
3 112 111 113
3 254 250 252
3 208 207 202
3 420 419 2
3 209 208 203
3 181 178 180
3 9 15 13
3 159 142 151
3 354 352 353
3 108 115 114
3 110 111 112
3 305 299 300
3 30 27 26
3 352 347 353
3 292 287 293
3 56 59 58
3 425 240 424
3 272 271 270
3 164 163 162
3 22 23 20
3 41 36 39
3 9 5 7
3 320 319 316
3 196 195 189
3 252 348 342
3 329 328 323
3 162 163 115
3 242 239 243
3 93 92 90
3 297 296 295
3 157 158 160
3 278 277 273
3 427 244 239
3 55 54 50
3 340 339 338
3 228 232 231
3 295 288 300
3 9 20 18
3 417 416 415
3 126 128 127
3 267 266 262
3 430 253 429
3 273 272 270
3 55 89 54
3 95 96 98
3 48 47 45
3 96 93 97
3 132 134 135
3 432 278 274
3 232 237 231
3 404 403 400
3 110 106 109
3 346 341 342
3 108 105 118
3 411 408 182
3 399 184 400
3 300 288 320
3 44 47 48
3 147 146 141
3 426 428 425
3 139 42 39
3 284 283 281
3 415 411 182
3 361 360 362
3 135 136 138
3 398 397 399
3 401 398 399
3 150 144 152
3 179 190 177
3 323 325 319
3 134 131 135
3 179 188 190
3 26 25 22
3 244 243 239
3 86 85 59
3 184 397 186
3 45 46 125
3 357 353 348
3 117 118 119
3 190 192 177
3 147 141 148
3 136 42 139
3 148 141 32
3 72 79 78
3 242 241 239
3 406 405 400
3 270 268 255
3 121 124 94
3 76 75 72
3 7 5 0
3 48 94 90
3 43 45 47
3 338 337 334
3 360 363 362
3 196 198 195
3 408 407 181
3 174 173 170
3 315 314 309
3 275 272 273
3 431 252 342
3 300 321 307
3 360 357 429
3 429 253 427
3 214 186 386
3 394 397 396
3 197 196 189
3 4 415 182
3 69 6 64
3 391 389 390
3 244 251 243
3 50 48 90
3 304 303 299
3 288 281 282
3 179 177 178
3 100 99 98
3 318 317 316
3 9 7 10
3 239 232 240
3 365 362 366
3 118 105 103
3 37 35 34
3 418 4 419
3 122 126 127
3 387 383 385
3 306 305 307
3 79 58 59
3 53 52 50
3 285 284 281
3 130 134 132
3 132 142 159
3 430 429 348
3 187 185 186
3 405 404 400
3 172 171 170
3 16 15 17
3 282 278 322
3 201 200 187
3 91 55 90
3 354 353 355
3 215 212 213
3 64 5 12
3 388 387 385

POINT_DATA 435
COLOR_SCALARS GocadColor 4
0 1 0.48333 1
0 1 0.48333 1
0 1 0.48333 1
0 1 0.48333 1
0 1 0.48333 1
0 1 0.48333 1
0 1 0.48333 1
0 1 0.48333 1
0 1 0.48333 1
0 1 0.48333 1
0 1 0.48333 1
0 1 0.48333 1
0 1 0.48333 1
0 1 0.48333 1
0 1 0.48333 1
0 1 0.48333 1
0 1 0.48333 1
0 1 0.48333 1
0 1 0.48333 1
0 1 0.48333 1
0 1 0.48333 1
0 1 0.48333 1
0 1 0.48333 1
0 1 0.48333 1
0 1 0.48333 1
0 1 0.48333 1
0 1 0.48333 1
0 1 0.48333 1
0 1 0.48333 1
0 1 0.48333 1
0 1 0.48333 1
0 1 0.48333 1
0 1 0.48333 1
0 1 0.48333 1
0 1 0.48333 1
0 1 0.48333 1
0 1 0.48333 1
0 1 0.48333 1
0 1 0.48333 1
0 1 0.48333 1
0 1 0.48333 1
0 1 0.48333 1
0 1 0.48333 1
0 1 0.48333 1
0 1 0.48333 1
0 1 0.48333 1
0 1 0.48333 1
0 1 0.48333 1
0 1 0.48333 1
0 1 0.48333 1
0 1 0.48333 1
0 1 0.48333 1
0 1 0.48333 1
0 1 0.48333 1
0 1 0.48333 1
0 1 0.48333 1
0 1 0.48333 1
0 1 0.48333 1
0 1 0.48333 1
0 1 0.48333 1
0 1 0.48333 1
0 1 0.48333 1
0 1 0.48333 1
0 1 0.48333 1
0 1 0.48333 1
0 1 0.48333 1
0 1 0.48333 1
0 1 0.48333 1
0 1 0.48333 1
0 1 0.48333 1
0 1 0.48333 1
0 1 0.48333 1
0 1 0.48333 1
0 1 0.48333 1
0 1 0.48333 1
0 1 0.48333 1
0 1 0.48333 1
0 1 0.48333 1
0 1 0.48333 1
0 1 0.48333 1
0 1 0.48333 1
0 1 0.48333 1
0 1 0.48333 1
0 1 0.48333 1
0 1 0.48333 1
0 1 0.48333 1
0 1 0.48333 1
0 1 0.48333 1
0 1 0.48333 1
0 1 0.48333 1
0 1 0.48333 1
0 1 0.48333 1
0 1 0.48333 1
0 1 0.48333 1
0 1 0.48333 1
0 1 0.48333 1
0 1 0.48333 1
0 1 0.48333 1
0 1 0.48333 1
0 1 0.48333 1
0 1 0.48333 1
0 1 0.48333 1
0 1 0.48333 1
0 1 0.48333 1
0 1 0.48333 1
0 1 0.48333 1
0 1 0.48333 1
0 1 0.48333 1
0 1 0.48333 1
0 1 0.48333 1
0 1 0.48333 1
0 1 0.48333 1
0 1 0.48333 1
0 1 0.48333 1
0 1 0.48333 1
0 1 0.48333 1
0 1 0.48333 1
0 1 0.48333 1
0 1 0.48333 1
0 1 0.48333 1
0 1 0.48333 1
0 1 0.48333 1
0 1 0.48333 1
0 1 0.48333 1
0 1 0.48333 1
0 1 0.48333 1
0 1 0.48333 1
0 1 0.48333 1
0 1 0.48333 1
0 1 0.48333 1
0 1 0.48333 1
0 1 0.48333 1
0 1 0.48333 1
0 1 0.48333 1
0 1 0.48333 1
0 1 0.48333 1
0 1 0.48333 1
0 1 0.48333 1
0 1 0.48333 1
0 1 0.48333 1
0 1 0.48333 1
0 1 0.48333 1
0 1 0.48333 1
0 1 0.48333 1
0 1 0.48333 1
0 1 0.48333 1
0 1 0.48333 1
0 1 0.48333 1
0 1 0.48333 1
0 1 0.48333 1
0 1 0.48333 1
0 1 0.48333 1
0 1 0.48333 1
0 1 0.48333 1
0 1 0.48333 1
0 1 0.48333 1
0 1 0.48333 1
0 1 0.48333 1
0 1 0.48333 1
0 1 0.48333 1
0 1 0.48333 1
0 1 0.48333 1
0 1 0.48333 1
0 1 0.48333 1
0 1 0.48333 1
0 1 0.48333 1
0 1 0.48333 1
0 1 0.48333 1
0 1 0.48333 1
0 1 0.48333 1
0 1 0.48333 1
0 1 0.48333 1
0 1 0.48333 1
0 1 0.48333 1
0 1 0.48333 1
0 1 0.48333 1
0 1 0.48333 1
0 1 0.48333 1
0 1 0.48333 1
0 1 0.48333 1
0 1 0.48333 1
0 1 0.48333 1
0 1 0.48333 1
0 1 0.48333 1
0 1 0.48333 1
0 1 0.48333 1
0 1 0.48333 1
0 1 0.48333 1
0 1 0.48333 1
0 1 0.48333 1
0 1 0.48333 1
0 1 0.48333 1
0 1 0.48333 1
0 1 0.48333 1
0 1 0.48333 1
0 1 0.48333 1
0 1 0.48333 1
0 1 0.48333 1
0 1 0.48333 1
0 1 0.48333 1
0 1 0.48333 1
0 1 0.48333 1
0 1 0.48333 1
0 1 0.48333 1
0 1 0.48333 1
0 1 0.48333 1
0 1 0.48333 1
0 1 0.48333 1
0 1 0.48333 1
0 1 0.48333 1
0 1 0.48333 1
0 1 0.48333 1
0 1 0.48333 1
0 1 0.48333 1
0 1 0.48333 1
0 1 0.48333 1
0 1 0.48333 1
0 1 0.48333 1
0 1 0.48333 1
0 1 0.48333 1
0 1 0.48333 1
0 1 0.48333 1
0 1 0.48333 1
0 1 0.48333 1
0 1 0.48333 1
0 1 0.48333 1
0 1 0.48333 1
0 1 0.48333 1
0 1 0.48333 1
0 1 0.48333 1
0 1 0.48333 1
0 1 0.48333 1
0 1 0.48333 1
0 1 0.48333 1
0 1 0.48333 1
0 1 0.48333 1
0 1 0.48333 1
0 1 0.48333 1
0 1 0.48333 1
0 1 0.48333 1
0 1 0.48333 1
0 1 0.48333 1
0 1 0.48333 1
0 1 0.48333 1
0 1 0.48333 1
0 1 0.48333 1
0 1 0.48333 1
0 1 0.48333 1
0 1 0.48333 1
0 1 0.48333 1
0 1 0.48333 1
0 1 0.48333 1
0 1 0.48333 1
0 1 0.48333 1
0 1 0.48333 1
0 1 0.48333 1
0 1 0.48333 1
0 1 0.48333 1
0 1 0.48333 1
0 1 0.48333 1
0 1 0.48333 1
0 1 0.48333 1
0 1 0.48333 1
0 1 0.48333 1
0 1 0.48333 1
0 1 0.48333 1
0 1 0.48333 1
0 1 0.48333 1
0 1 0.48333 1
0 1 0.48333 1
0 1 0.48333 1
0 1 0.48333 1
0 1 0.48333 1
0 1 0.48333 1
0 1 0.48333 1
0 1 0.48333 1
0 1 0.48333 1
0 1 0.48333 1
0 1 0.48333 1
0 1 0.48333 1
0 1 0.48333 1
0 1 0.48333 1
0 1 0.48333 1
0 1 0.48333 1
0 1 0.48333 1
0 1 0.48333 1
0 1 0.48333 1
0 1 0.48333 1
0 1 0.48333 1
0 1 0.48333 1
0 1 0.48333 1
0 1 0.48333 1
0 1 0.48333 1
0 1 0.48333 1
0 1 0.48333 1
0 1 0.48333 1
0 1 0.48333 1
0 1 0.48333 1
0 1 0.48333 1
0 1 0.48333 1
0 1 0.48333 1
0 1 0.48333 1
0 1 0.48333 1
0 1 0.48333 1
0 1 0.48333 1
0 1 0.48333 1
0 1 0.48333 1
0 1 0.48333 1
0 1 0.48333 1
0 1 0.48333 1
0 1 0.48333 1
0 1 0.48333 1
0 1 0.48333 1
0 1 0.48333 1
0 1 0.48333 1
0 1 0.48333 1
0 1 0.48333 1
0 1 0.48333 1
0 1 0.48333 1
0 1 0.48333 1
0 1 0.48333 1
0 1 0.48333 1
0 1 0.48333 1
0 1 0.48333 1
0 1 0.48333 1
0 1 0.48333 1
0 1 0.48333 1
0 1 0.48333 1
0 1 0.48333 1
0 1 0.48333 1
0 1 0.48333 1
0 1 0.48333 1
0 1 0.48333 1
0 1 0.48333 1
0 1 0.48333 1
0 1 0.48333 1
0 1 0.48333 1
0 1 0.48333 1
0 1 0.48333 1
0 1 0.48333 1
0 1 0.48333 1
0 1 0.48333 1
0 1 0.48333 1
0 1 0.48333 1
0 1 0.48333 1
0 1 0.48333 1
0 1 0.48333 1
0 1 0.48333 1
0 1 0.48333 1
0 1 0.48333 1
0 1 0.48333 1
0 1 0.48333 1
0 1 0.48333 1
0 1 0.48333 1
0 1 0.48333 1
0 1 0.48333 1
0 1 0.48333 1
0 1 0.48333 1
0 1 0.48333 1
0 1 0.48333 1
0 1 0.48333 1
0 1 0.48333 1
0 1 0.48333 1
0 1 0.48333 1
0 1 0.48333 1
0 1 0.48333 1
0 1 0.48333 1
0 1 0.48333 1
0 1 0.48333 1
0 1 0.48333 1
0 1 0.48333 1
0 1 0.48333 1
0 1 0.48333 1
0 1 0.48333 1
0 1 0.48333 1
0 1 0.48333 1
0 1 0.48333 1
0 1 0.48333 1
0 1 0.48333 1
0 1 0.48333 1
0 1 0.48333 1
0 1 0.48333 1
0 1 0.48333 1
0 1 0.48333 1
0 1 0.48333 1
0 1 0.48333 1
0 1 0.48333 1
0 1 0.48333 1
0 1 0.48333 1
0 1 0.48333 1
0 1 0.48333 1
0 1 0.48333 1
0 1 0.48333 1
0 1 0.48333 1
0 1 0.48333 1
0 1 0.48333 1
0 1 0.48333 1
0 1 0.48333 1
0 1 0.48333 1
0 1 0.48333 1
0 1 0.48333 1
0 1 0.48333 1
0 1 0.48333 1
0 1 0.48333 1
0 1 0.48333 1
0 1 0.48333 1
0 1 0.48333 1
0 1 0.48333 1
0 1 0.48333 1
0 1 0.48333 1
0 1 0.48333 1
0 1 0.48333 1
0 1 0.48333 1
0 1 0.48333 1
0 1 0.48333 1
0 1 0.48333 1
0 1 0.48333 1
0 1 0.48333 1
0 1 0.48333 1
0 1 0.48333 1
0 1 0.48333 1
0 1 0.48333 1
0 1 0.48333 1
0 1 0.48333 1
0 1 0.48333 1
0 1 0.48333 1
0 1 0.48333 1
0 1 0.48333 1
0 1 0.48333 1
0 1 0.48333 1
0 1 0.48333 1
0 1 0.48333 1
0 1 0.48333 1
0 1 0.48333 1
0 1 0.48333 1

