# vtk DataFile Version 3.0
Gocad TSurf to VTK
ASCII
DATASET POLYDATA
POINTS 596 float
21619125.000 4576872.500 560.000
21619200.000 4576750.000 570.000
21618775.000 4576757.500 361.250
21617200.000 4576180.000 -420.000
21619050.000 4576995.000 550.000
21618975.000 4577117.500 540.000
21617925.000 4576772.500 -56.250
21617350.000 4576480.000 -342.500
21618900.000 4577240.000 530.000
21617500.000 4576780.000 -265.000
21618500.000 4577277.500 290.000
21616900.000 4576465.000 -585.000
21616800.000 4576560.000 -640.000
21617100.000 4576275.000 -475.000
21616700.000 4576280.000 -697.500
21616650.000 4576140.000 -726.250
21616600.000 4576000.000 -755.000
21616775.000 4575970.000 -695.000
21617225.000 4576105.000 -443.750
21616550.000 4575925.000 -800.000
21616500.000 4575850.000 -845.000
21617125.000 4575910.000 -575.000
21616450.000 4575775.000 -890.000
21616400.000 4575700.000 -935.000
21616525.000 4575640.000 -952.500
21616350.000 4575610.000 -1046.250
21617100.000 4575670.000 -760.000
21616775.000 4575520.000 -987.500
21617275.000 4575955.000 -491.250
21617775.000 4576097.500 -243.750
21619025.000 4575940.000 321.250
21619500.000 4576360.000 600.000
21616900.000 4575460.000 -1005.000
21619600.000 4575960.000 600.000
21617575.000 4575435.000 -603.750
21619525.000 4576260.000 600.000
21619600.000 4575810.000 600.000
21616700.000 4575250.000 -1012.500
21618925.000 4575385.000 198.750
21616200.000 4575340.000 -1380.000
21616275.000 4575265.000 -1290.000
21616250.000 4575430.000 -1268.750
21616300.000 4575520.000 -1157.500
21616425.000 4575115.000 -1110.000
21616150.000 4575250.000 -1362.500
21616100.000 4575160.000 -1345.000
21616050.000 4575070.000 -1327.500
21616000.000 4574980.000 -1310.000
21616500.000 4575040.000 -1020.000
21616050.000 4574910.000 -1237.500
21616275.000 4574785.000 -1020.000
21615950.000 4574907.500 -1282.500
21615900.000 4574835.000 -1255.000
21616150.000 4574770.000 -1092.500
21615850.000 4574762.500 -1227.500
21615800.000 4574690.000 -1200.000
21616200.000 4574700.000 -1020.000
21615950.000 4574630.000 -887.500
21616425.000 4574542.500 -641.250
21615775.000 4574657.500 -1088.750
21615750.000 4574625.000 -977.500
21615725.000 4574592.500 -866.250
21615700.000 4574560.000 -755.000
21617325.000 4574562.500 -236.250
21618150.000 4574635.000 42.500
21615875.000 4574462.500 -667.500
21617300.000 4574260.000 -277.500
21615650.000 4574502.500 -723.750
21615600.000 4574445.000 -692.500
21615550.000 4574387.500 -661.250
21615500.000 4574330.000 -630.000
21616400.000 4574170.000 -405.000
21615625.000 4574220.000 -560.000
21616100.000 4573960.000 -363.750
21615475.000 4574255.000 -595.000
21615450.000 4574180.000 -560.000
21615425.000 4574105.000 -525.000
21615875.000 4574000.000 -420.000
21615400.000 4574030.000 -490.000
21616000.000 4573890.000 -350.000
21615825.000 4573885.000 -408.750
21616075.000 4573665.000 -350.000
21615375.000 4573990.000 -513.750
21615350.000 4573950.000 -537.500
21615475.000 4573875.000 -526.250
21615325.000 4573910.000 -561.250
21615300.000 4573870.000 -585.000
21615875.000 4573620.000 -451.250
21615275.000 4573830.000 -627.500
21615650.000 4573650.000 -552.500
21616300.000 4573220.000 -335.000
21615250.000 4573790.000 -670.000
21615225.000 4573750.000 -712.500
21615200.000 4573710.000 -755.000
21615275.000 4573592.500 -681.250
21615900.000 4573230.000 -397.500
21615150.000 4573657.500 -712.500
21615100.000 4573605.000 -670.000
21615050.000 4573552.500 -627.500
21615000.000 4573500.000 -585.000
21615700.000 4573235.000 -428.750
21615325.000 4573257.500 -526.250
21615500.000 4572830.000 -490.000
21614950.000 4573452.500 -620.000
21614900.000 4573405.000 -655.000
21614850.000 4573357.500 -690.000
21614800.000 4573310.000 -725.000
21616700.000 4572325.000 -62.500
21617867.578 4571833.645 353.449
21617500.000 4571400.000 295.000
21617600.000 4571505.000 312.500
21617800.000 4571715.000 347.500
21617600.000 4571505.000 312.500
21617700.000 4571610.000 330.000
21617835.414 4571752.184 353.697
21617867.672 4571840.793 353.335
21617873.719 4571842.996 353.503
21617500.000 4572170.000 190.000
21617923.820 4571966.566 353.170
21617929.750 4571981.203 353.131
21617988.609 4572064.133 361.013
21618052.539 4572154.215 369.575
21616700.000 4572870.000 -160.000
21618087.781 4572203.867 374.295
21618135.828 4572271.574 380.730
21618164.055 4572311.828 384.447
21618171.102 4572321.871 385.374
21618199.992 4572342.949 387.937
21617450.000 4572965.000 35.000
21618303.375 4572418.379 397.108
21618416.641 4572501.012 407.156
21618502.383 4572563.570 414.762
21618525.000 4572597.500 412.500
21618600.000 4572710.000 405.000
21617450.000 4573395.000 27.500
21618650.000 4572832.500 405.000
21618800.000 4573200.000 405.000
21618750.000 4573077.500 405.000
21618200.000 4573442.500 202.500
21619025.000 4573292.500 412.500
21619250.000 4573385.000 420.000
21617000.000 4573927.500 -202.500
21619475.000 4573477.500 427.500
21619700.000 4573570.000 435.000
21618900.000 4573800.000 197.500
21619750.000 4573722.500 437.500
21619789.359 4573842.555 439.468
21619794.844 4573874.570 438.611
21619795.047 4573875.762 438.579
21619821.484 4574030.102 434.449
21619843.711 4574159.863 430.977
21619859.094 4574181.258 433.632
21619859.609 4574186.000 434.314
21619787.547 4574337.973 459.057
21619783.672 4574346.148 460.388
21619714.336 4574492.371 484.194
21619648.820 4574630.527 506.687
21619586.828 4574761.266 527.973
21619641.016 4574776.469 528.456
21619657.594 4574791.219 530.093
21618975.000 4574845.000 195.000
21619646.883 4575007.699 562.356
21619594.477 4575355.445 596.419
21619593.711 4575359.352 596.712
21619594.961 4575352.941 596.231
21619620.711 4575265.059 593.932
21619627.078 4575202.438 586.249
21619594.313 4575360.211 596.620
21619600.000 4575488.199 600.000
21619600.000 4575660.000 600.000
21619600.000 4575488.199 600.000
21618700.000 4572955.000 405.000
21619425.000 4576457.500 592.500
21618250.000 4576315.000 27.500
21619425.000 4576457.500 592.500
21619350.000 4576555.000 585.000
21619275.000 4576652.500 577.500
21616750.000 4576420.000 -668.750
21617325.000 4576895.000 -358.750
21616800.000 4576730.000 -640.000
21617450.000 4576932.500 -306.250
21617400.000 4577085.000 -347.500
21617700.000 4577352.500 -190.000
21618825.000 4577772.500 518.750
21618375.000 4577980.000 267.500
21618850.000 4577595.000 522.500
21618854.031 4577566.781 523.105
21618853.992 4577566.664 523.099
21618852.719 4577456.898 515.164
21618870.141 4577418.156 523.191
21618877.563 4577401.523 526.635
21618877.219 4577401.734 526.583
21618800.000 4577950.000 515.000
21617300.000 4577390.000 -430.000
21617250.000 4577552.500 -441.250
21616875.000 4577440.000 -598.750
21617525.000 4578020.000 -227.500
21617150.000 4577877.500 -463.750
21618800.000 4578512.500 455.000
21618800.000 4578700.000 435.000
21618800.000 4578325.000 475.000
21618800.000 4578137.500 495.000
21617100.000 4578040.000 -475.000
21618325.000 4578762.500 232.500
21617025.000 4577840.000 -516.250
21616950.000 4577640.000 -557.500
21616600.000 4577870.000 -725.000
21616650.000 4577712.500 -703.750
21616675.000 4578140.000 -637.500
21616450.000 4578050.000 -763.750
21617000.000 4578495.000 -425.000
21616750.000 4578410.000 -550.000
21617375.000 4578887.500 -172.500
21618425.000 4579315.000 423.750
21616900.000 4578950.000 -375.000
21616825.000 4578680.000 -462.500
21618300.000 4579520.000 420.000
21617175.000 4579207.500 -180.000
21616600.000 4579257.500 -461.250
21618225.000 4579635.000 416.250
21617450.000 4579465.000 15.000
21618225.000 4579632.500 416.250
21618150.000 4579745.000 412.500
21618075.000 4579857.500 408.750
21618000.000 4579970.000 405.000
21617875.000 4580092.500 405.000
21617750.000 4580215.000 405.000
21617000.000 4579910.000 -42.500
21616750.000 4579635.000 -266.250
21617625.000 4580337.500 405.000
21617500.000 4580460.000 405.000
21615900.000 4579810.000 -430.000
21616200.000 4579585.000 -460.000
21616200.000 4580105.000 -207.500
21615225.000 4580065.000 -628.750
21617400.000 4580592.500 418.750
21617300.000 4580725.000 432.500
21617400.000 4580592.500 418.750
21617200.000 4580857.500 446.250
21617100.000 4580990.000 460.000
21615000.000 4580150.000 -695.000
21616575.000 4580992.500 185.000
21615000.000 4581000.000 -640.000
21616964.578 4581296.961 473.542
21616863.000 4581479.695 470.597
21616784.000 4581621.813 468.307
21616764.547 4581656.805 467.743
21616760.992 4581667.516 467.218
21615700.000 4581600.000 -152.500
21616728.992 4581764.086 462.485
21614850.000 4581120.000 -737.500
21614925.000 4581495.000 -681.250
21614500.000 4580830.000 -920.000
21614475.000 4580992.500 -947.500
21614625.000 4580660.000 -863.750
21614875.000 4580320.000 -751.250
21614575.000 4580637.500 -892.500
21614650.000 4580445.000 -865.000
21614725.000 4580252.500 -837.500
21614800.000 4580060.000 -810.000
21614925.000 4579940.000 -785.000
21615075.000 4580007.500 -698.750
21615050.000 4579820.000 -760.000
21615150.000 4579865.000 -702.500
21615175.000 4579700.000 -735.000
21615225.000 4579722.500 -706.250
21615300.000 4579580.000 -710.000
21615850.000 4579445.000 -667.500
21615425.000 4579455.000 -758.750
21615550.000 4579330.000 -807.500
21615675.000 4579205.000 -856.250
21615800.000 4579080.000 -905.000
21616375.000 4579167.500 -587.500
21615850.000 4578957.500 -898.750
21616250.000 4578975.000 -685.000
21615900.000 4578835.000 -892.500
21615950.000 4578712.500 -886.250
21616000.000 4578590.000 -880.000
21616150.000 4578410.000 -841.250
21616300.000 4578230.000 -802.500
21614700.000 4581240.000 -835.000
21614450.000 4581155.000 -975.000
21614550.000 4581360.000 -932.500
21615175.000 4581950.000 -447.500
21614400.000 4581480.000 -1030.000
21616050.000 4581900.000 91.250
21616400.000 4582200.000 335.000
21616500.000 4582067.500 373.750
21615450.000 4582240.000 -200.000
21614750.000 4582290.000 -646.250
21616300.000 4582355.000 325.000
21615725.000 4582530.000 47.500
21616100.000 4582665.000 305.000
21616000.000 4582820.000 295.000
[...]
POINT_DATA 596
COLOR_SCALARS GocadColor 4
0.0930037 0.0930037 0.439216 1
0.0930037 0.0930037 0.439216 1
0.0930037 0.0930037 0.439216 1
0.0930037 0.0930037 0.439216 1
0.0930037 0.0930037 0.439216 1
0.0930037 0.0930037 0.439216 1
0.0930037 0.0930037 0.439216 1
0.0930037 0.0930037 0.439216 1
0.0930037 0.0930037 0.439216 1
0.0930037 0.0930037 0.439216 1
0.0930037 0.0930037 0.439216 1
0.0930037 0.0930037 0.439216 1
0.0930037 0.0930037 0.439216 1
0.0930037 0.0930037 0.439216 1
0.0930037 0.0930037 0.439216 1
0.0930037 0.0930037 0.439216 1
0.0930037 0.0930037 0.439216 1
0.0930037 0.0930037 0.439216 1
0.0930037 0.0930037 0.439216 1
0.0930037 0.0930037 0.439216 1
0.0930037 0.0930037 0.439216 1
0.0930037 0.0930037 0.439216 1
0.0930037 0.0930037 0.439216 1
0.0930037 0.0930037 0.439216 1
0.0930037 0.0930037 0.439216 1
0.0930037 0.0930037 0.439216 1
0.0930037 0.0930037 0.439216 1
0.0930037 0.0930037 0.439216 1
0.0930037 0.0930037 0.439216 1
0.0930037 0.0930037 0.439216 1
0.0930037 0.0930037 0.439216 1
0.0930037 0.0930037 0.439216 1
0.0930037 0.0930037 0.439216 1
0.0930037 0.0930037 0.439216 1
0.0930037 0.0930037 0.439216 1
0.0930037 0.0930037 0.439216 1
0.0930037 0.0930037 0.439216 1
0.0930037 0.0930037 0.439216 1
0.0930037 0.0930037 0.439216 1
0.0930037 0.0930037 0.439216 1
0.0930037 0.0930037 0.439216 1
0.0930037 0.0930037 0.439216 1
0.0930037 0.0930037 0.439216 1
0.0930037 0.0930037 0.439216 1
0.0930037 0.0930037 0.439216 1
0.0930037 0.0930037 0.439216 1
0.0930037 0.0930037 0.439216 1
0.0930037 0.0930037 0.439216 1
0.0930037 0.0930037 0.439216 1
0.0930037 0.0930037 0.439216 1
0.0930037 0.0930037 0.439216 1
0.0930037 0.0930037 0.439216 1
0.0930037 0.0930037 0.439216 1
0.0930037 0.0930037 0.439216 1
0.0930037 0.0930037 0.439216 1
0.0930037 0.0930037 0.439216 1
0.0930037 0.0930037 0.439216 1
0.0930037 0.0930037 0.439216 1
0.0930037 0.0930037 0.439216 1
0.0930037 0.0930037 0.439216 1
0.0930037 0.0930037 0.439216 1
0.0930037 0.0930037 0.439216 1
0.0930037 0.0930037 0.439216 1
0.0930037 0.0930037 0.439216 1
0.0930037 0.0930037 0.439216 1
0.0930037 0.0930037 0.439216 1
0.0930037 0.0930037 0.439216 1
0.0930037 0.0930037 0.439216 1
0.0930037 0.0930037 0.439216 1
0.0930037 0.0930037 0.439216 1
0.0930037 0.0930037 0.439216 1
0.0930037 0.0930037 0.439216 1
0.0930037 0.0930037 0.439216 1
0.0930037 0.0930037 0.439216 1
0.0930037 0.0930037 0.439216 1
0.0930037 0.0930037 0.439216 1
0.0930037 0.0930037 0.439216 1
0.0930037 0.0930037 0.439216 1
0.0930037 0.0930037 0.439216 1
0.0930037 0.0930037 0.439216 1
0.0930037 0.0930037 0.439216 1
0.0930037 0.0930037 0.439216 1
0.0930037 0.0930037 0.439216 1
0.0930037 0.0930037 0.439216 1
0.0930037 0.0930037 0.439216 1
0.0930037 0.0930037 0.439216 1
0.0930037 0.0930037 0.439216 1
0.0930037 0.0930037 0.439216 1
0.0930037 0.0930037 0.439216 1
0.0930037 0.0930037 0.439216 1
0.0930037 0.0930037 0.439216 1
0.0930037 0.0930037 0.439216 1
0.0930037 0.0930037 0.439216 1
0.0930037 0.0930037 0.439216 1
0.0930037 0.0930037 0.439216 1
0.0930037 0.0930037 0.439216 1
0.0930037 0.0930037 0.439216 1
0.0930037 0.0930037 0.439216 1
0.0930037 0.0930037 0.439216 1
0.0930037 0.0930037 0.439216 1
0.0930037 0.0930037 0.439216 1
0.0930037 0.0930037 0.439216 1
0.0930037 0.0930037 0.439216 1
0.0930037 0.0930037 0.439216 1
0.0930037 0.0930037 0.439216 1
0.0930037 0.0930037 0.439216 1
0.0930037 0.0930037 0.439216 1
0.0930037 0.0930037 0.439216 1
0.0930037 0.0930037 0.439216 1
0.0930037 0.0930037 0.439216 1
0.0930037 0.0930037 0.439216 1
0.0930037 0.0930037 0.439216 1
0.0930037 0.0930037 0.439216 1
0.0930037 0.0930037 0.439216 1
0.0930037 0.0930037 0.439216 1
0.0930037 0.0930037 0.439216 1
0.0930037 0.0930037 0.439216 1
0.0930037 0.0930037 0.439216 1
0.0930037 0.0930037 0.439216 1
0.0930037 0.0930037 0.439216 1
0.0930037 0.0930037 0.439216 1
0.0930037 0.0930037 0.439216 1
0.0930037 0.0930037 0.439216 1
0.0930037 0.0930037 0.439216 1
0.0930037 0.0930037 0.439216 1
0.0930037 0.0930037 0.439216 1
0.0930037 0.0930037 0.439216 1
0.0930037 0.0930037 0.439216 1
0.0930037 0.0930037 0.439216 1
0.0930037 0.0930037 0.439216 1
0.0930037 0.0930037 0.439216 1
0.0930037 0.0930037 0.439216 1
0.0930037 0.0930037 0.439216 1
0.0930037 0.0930037 0.439216 1
0.0930037 0.0930037 0.439216 1
0.0930037 0.0930037 0.439216 1
0.0930037 0.0930037 0.439216 1
0.0930037 0.0930037 0.439216 1
0.0930037 0.0930037 0.439216 1
0.0930037 0.0930037 0.439216 1
0.0930037 0.0930037 0.439216 1
0.0930037 0.0930037 0.439216 1
0.0930037 0.0930037 0.439216 1
0.0930037 0.0930037 0.439216 1
0.0930037 0.0930037 0.439216 1
0.0930037 0.0930037 0.439216 1
0.0930037 0.0930037 0.439216 1
0.0930037 0.0930037 0.439216 1
0.0930037 0.0930037 0.439216 1
0.0930037 0.0930037 0.439216 1
0.0930037 0.0930037 0.439216 1
0.0930037 0.0930037 0.439216 1
0.0930037 0.0930037 0.439216 1
0.0930037 0.0930037 0.439216 1
0.0930037 0.0930037 0.439216 1
0.0930037 0.0930037 0.439216 1
0.0930037 0.0930037 0.439216 1
0.0930037 0.0930037 0.439216 1
0.0930037 0.0930037 0.439216 1
0.0930037 0.0930037 0.439216 1
0.0930037 0.0930037 0.439216 1
0.0930037 0.0930037 0.439216 1
0.0930037 0.0930037 0.439216 1
0.0930037 0.0930037 0.439216 1
0.0930037 0.0930037 0.439216 1
0.0930037 0.0930037 0.439216 1
0.0930037 0.0930037 0.439216 1
0.0930037 0.0930037 0.439216 1
0.0930037 0.0930037 0.439216 1
0.0930037 0.0930037 0.439216 1
0.0930037 0.0930037 0.439216 1
0.0930037 0.0930037 0.439216 1
0.0930037 0.0930037 0.439216 1
0.0930037 0.0930037 0.439216 1
0.0930037 0.0930037 0.439216 1
0.0930037 0.0930037 0.439216 1
0.0930037 0.0930037 0.439216 1
0.0930037 0.0930037 0.439216 1
0.0930037 0.0930037 0.439216 1
0.0930037 0.0930037 0.439216 1
0.0930037 0.0930037 0.439216 1
0.0930037 0.0930037 0.439216 1
0.0930037 0.0930037 0.439216 1
0.0930037 0.0930037 0.439216 1
0.0930037 0.0930037 0.439216 1
0.0930037 0.0930037 0.439216 1
0.0930037 0.0930037 0.439216 1
0.0930037 0.0930037 0.439216 1
0.0930037 0.0930037 0.439216 1
0.0930037 0.0930037 0.439216 1
0.0930037 0.0930037 0.439216 1
0.0930037 0.0930037 0.439216 1
0.0930037 0.0930037 0.439216 1
0.0930037 0.0930037 0.439216 1
0.0930037 0.0930037 0.439216 1
0.0930037 0.0930037 0.439216 1
0.0930037 0.0930037 0.439216 1
0.0930037 0.0930037 0.439216 1
0.0930037 0.0930037 0.439216 1
0.0930037 0.0930037 0.439216 1
0.0930037 0.0930037 0.439216 1
0.0930037 0.0930037 0.439216 1
0.0930037 0.0930037 0.439216 1
0.0930037 0.0930037 0.439216 1
0.0930037 0.0930037 0.439216 1
0.0930037 0.0930037 0.439216 1
0.0930037 0.0930037 0.439216 1
0.0930037 0.0930037 0.439216 1
0.0930037 0.0930037 0.439216 1
0.0930037 0.0930037 0.439216 1
0.0930037 0.0930037 0.439216 1
0.0930037 0.0930037 0.439216 1
0.0930037 0.0930037 0.439216 1
0.0930037 0.0930037 0.439216 1
0.0930037 0.0930037 0.439216 1
0.0930037 0.0930037 0.439216 1
0.0930037 0.0930037 0.439216 1
0.0930037 0.0930037 0.439216 1
0.0930037 0.0930037 0.439216 1
0.0930037 0.0930037 0.439216 1
0.0930037 0.0930037 0.439216 1
0.0930037 0.0930037 0.439216 1
0.0930037 0.0930037 0.439216 1
0.0930037 0.0930037 0.439216 1
0.0930037 0.0930037 0.439216 1
0.0930037 0.0930037 0.439216 1
0.0930037 0.0930037 0.439216 1
0.0930037 0.0930037 0.439216 1
0.0930037 0.0930037 0.439216 1
0.0930037 0.0930037 0.439216 1
0.0930037 0.0930037 0.439216 1
0.0930037 0.0930037 0.439216 1
0.0930037 0.0930037 0.439216 1
0.0930037 0.0930037 0.439216 1
0.0930037 0.0930037 0.439216 1
0.0930037 0.0930037 0.439216 1
0.0930037 0.0930037 0.439216 1
0.0930037 0.0930037 0.439216 1
0.0930037 0.0930037 0.439216 1
0.0930037 0.0930037 0.439216 1
0.0930037 0.0930037 0.439216 1
0.0930037 0.0930037 0.439216 1
0.0930037 0.0930037 0.439216 1
0.0930037 0.0930037 0.439216 1
0.0930037 0.0930037 0.439216 1
0.0930037 0.0930037 0.439216 1
0.0930037 0.0930037 0.439216 1
0.0930037 0.0930037 0.439216 1
0.0930037 0.0930037 0.439216 1
0.0930037 0.0930037 0.439216 1
0.0930037 0.0930037 0.439216 1
0.0930037 0.0930037 0.439216 1
0.0930037 0.0930037 0.439216 1
0.0930037 0.0930037 0.439216 1
0.0930037 0.0930037 0.439216 1
0.0930037 0.0930037 0.439216 1
0.0930037 0.0930037 0.439216 1
0.0930037 0.0930037 0.439216 1
0.0930037 0.0930037 0.439216 1
0.0930037 0.0930037 0.439216 1
0.0930037 0.0930037 0.439216 1
0.0930037 0.0930037 0.439216 1
0.0930037 0.0930037 0.439216 1
0.0930037 0.0930037 0.439216 1
0.0930037 0.0930037 0.439216 1
0.0930037 0.0930037 0.439216 1
0.0930037 0.0930037 0.439216 1
0.0930037 0.0930037 0.439216 1
0.0930037 0.0930037 0.439216 1
0.0930037 0.0930037 0.439216 1
0.0930037 0.0930037 0.439216 1
0.0930037 0.0930037 0.439216 1
0.0930037 0.0930037 0.439216 1
0.0930037 0.0930037 0.439216 1
0.0930037 0.0930037 0.439216 1
0.0930037 0.0930037 0.439216 1
0.0930037 0.0930037 0.439216 1
0.0930037 0.0930037 0.439216 1
0.0930037 0.0930037 0.439216 1
0.0930037 0.0930037 0.439216 1
0.0930037 0.0930037 0.439216 1
0.0930037 0.0930037 0.439216 1
0.0930037 0.0930037 0.439216 1
0.0930037 0.0930037 0.439216 1
0.0930037 0.0930037 0.439216 1
0.0930037 0.0930037 0.439216 1
0.0930037 0.0930037 0.439216 1
0.0930037 0.0930037 0.439216 1
0.0930037 0.0930037 0.439216 1
0.0930037 0.0930037 0.439216 1
0.0930037 0.0930037 0.439216 1
0.0930037 0.0930037 0.439216 1
0.0930037 0.0930037 0.439216 1
0.0930037 0.0930037 0.439216 1
0.0930037 0.0930037 0.439216 1
0.0930037 0.0930037 0.439216 1
0.0930037 0.0930037 0.439216 1
0.0930037 0.0930037 0.439216 1
0.0930037 0.0930037 0.439216 1
0.0930037 0.0930037 0.439216 1
0.0930037 0.0930037 0.439216 1
0.0930037 0.0930037 0.439216 1
0.0930037 0.0930037 0.439216 1
0.0930037 0.0930037 0.439216 1
0.0930037 0.0930037 0.439216 1
0.0930037 0.0930037 0.439216 1
0.0930037 0.0930037 0.439216 1
0.0930037 0.0930037 0.439216 1
0.0930037 0.0930037 0.439216 1
0.0930037 0.0930037 0.439216 1
0.0930037 0.0930037 0.439216 1
0.0930037 0.0930037 0.439216 1
0.0930037 0.0930037 0.439216 1
0.0930037 0.0930037 0.439216 1
0.0930037 0.0930037 0.439216 1
0.0930037 0.0930037 0.439216 1
0.0930037 0.0930037 0.439216 1
0.0930037 0.0930037 0.439216 1
0.0930037 0.0930037 0.439216 1
0.0930037 0.0930037 0.439216 1
0.0930037 0.0930037 0.439216 1
0.0930037 0.0930037 0.439216 1
0.0930037 0.0930037 0.439216 1
0.0930037 0.0930037 0.439216 1
0.0930037 0.0930037 0.439216 1
0.0930037 0.0930037 0.439216 1
0.0930037 0.0930037 0.439216 1
0.0930037 0.0930037 0.439216 1
0.0930037 0.0930037 0.439216 1
0.0930037 0.0930037 0.439216 1
0.0930037 0.0930037 0.439216 1
0.0930037 0.0930037 0.439216 1
0.0930037 0.0930037 0.439216 1
0.0930037 0.0930037 0.439216 1
0.0930037 0.0930037 0.439216 1
0.0930037 0.0930037 0.439216 1
0.0930037 0.0930037 0.439216 1
0.0930037 0.0930037 0.439216 1
0.0930037 0.0930037 0.439216 1
0.0930037 0.0930037 0.439216 1
0.0930037 0.0930037 0.439216 1
0.0930037 0.0930037 0.439216 1
0.0930037 0.0930037 0.439216 1
0.0930037 0.0930037 0.439216 1
0.0930037 0.0930037 0.439216 1
0.0930037 0.0930037 0.439216 1
0.0930037 0.0930037 0.439216 1
0.0930037 0.0930037 0.439216 1
0.0930037 0.0930037 0.439216 1
0.0930037 0.0930037 0.439216 1
0.0930037 0.0930037 0.439216 1
0.0930037 0.0930037 0.439216 1
0.0930037 0.0930037 0.439216 1
0.0930037 0.0930037 0.439216 1
0.0930037 0.0930037 0.439216 1
0.0930037 0.0930037 0.439216 1
0.0930037 0.0930037 0.439216 1
0.0930037 0.0930037 0.439216 1
0.0930037 0.0930037 0.439216 1
0.0930037 0.0930037 0.439216 1
0.0930037 0.0930037 0.439216 1
0.0930037 0.0930037 0.439216 1
0.0930037 0.0930037 0.439216 1
0.0930037 0.0930037 0.439216 1
0.0930037 0.0930037 0.439216 1
0.0930037 0.0930037 0.439216 1
0.0930037 0.0930037 0.439216 1
0.0930037 0.0930037 0.439216 1
0.0930037 0.0930037 0.439216 1
0.0930037 0.0930037 0.439216 1
0.0930037 0.0930037 0.439216 1
0.0930037 0.0930037 0.439216 1
0.0930037 0.0930037 0.439216 1
0.0930037 0.0930037 0.439216 1
0.0930037 0.0930037 0.439216 1
0.0930037 0.0930037 0.439216 1
0.0930037 0.0930037 0.439216 1
0.0930037 0.0930037 0.439216 1
0.0930037 0.0930037 0.439216 1
0.0930037 0.0930037 0.439216 1
0.0930037 0.0930037 0.439216 1
0.0930037 0.0930037 0.439216 1
0.0930037 0.0930037 0.439216 1
0.0930037 0.0930037 0.439216 1
0.0930037 0.0930037 0.439216 1
0.0930037 0.0930037 0.439216 1
0.0930037 0.0930037 0.439216 1
0.0930037 0.0930037 0.439216 1
0.0930037 0.0930037 0.439216 1
0.0930037 0.0930037 0.439216 1
0.0930037 0.0930037 0.439216 1
0.0930037 0.0930037 0.439216 1
0.0930037 0.0930037 0.439216 1
0.0930037 0.0930037 0.439216 1
0.0930037 0.0930037 0.439216 1
0.0930037 0.0930037 0.439216 1
0.0930037 0.0930037 0.439216 1
0.0930037 0.0930037 0.439216 1
0.0930037 0.0930037 0.439216 1
0.0930037 0.0930037 0.439216 1
0.0930037 0.0930037 0.439216 1
0.0930037 0.0930037 0.439216 1
0.0930037 0.0930037 0.439216 1
0.0930037 0.0930037 0.439216 1
0.0930037 0.0930037 0.439216 1
0.0930037 0.0930037 0.439216 1
0.0930037 0.0930037 0.439216 1
0.0930037 0.0930037 0.439216 1
0.0930037 0.0930037 0.439216 1
0.0930037 0.0930037 0.439216 1
0.0930037 0.0930037 0.439216 1
0.0930037 0.0930037 0.439216 1
0.0930037 0.0930037 0.439216 1
0.0930037 0.0930037 0.439216 1
0.0930037 0.0930037 0.439216 1
0.0930037 0.0930037 0.439216 1
0.0930037 0.0930037 0.439216 1
0.0930037 0.0930037 0.439216 1
0.0930037 0.0930037 0.439216 1
0.0930037 0.0930037 0.439216 1
0.0930037 0.0930037 0.439216 1
0.0930037 0.0930037 0.439216 1
0.0930037 0.0930037 0.439216 1
0.0930037 0.0930037 0.439216 1
0.0930037 0.0930037 0.439216 1
0.0930037 0.0930037 0.439216 1
0.0930037 0.0930037 0.439216 1
0.0930037 0.0930037 0.439216 1
0.0930037 0.0930037 0.439216 1
0.0930037 0.0930037 0.439216 1
0.0930037 0.0930037 0.439216 1
0.0930037 0.0930037 0.439216 1
0.0930037 0.0930037 0.439216 1
0.0930037 0.0930037 0.439216 1
0.0930037 0.0930037 0.439216 1
0.0930037 0.0930037 0.439216 1
0.0930037 0.0930037 0.439216 1
0.0930037 0.0930037 0.439216 1
0.0930037 0.0930037 0.439216 1
0.0930037 0.0930037 0.439216 1
0.0930037 0.0930037 0.439216 1
0.0930037 0.0930037 0.439216 1
0.0930037 0.0930037 0.439216 1
0.0930037 0.0930037 0.439216 1
0.0930037 0.0930037 0.439216 1
0.0930037 0.0930037 0.439216 1
0.0930037 0.0930037 0.439216 1
0.0930037 0.0930037 0.439216 1
0.0930037 0.0930037 0.439216 1
0.0930037 0.0930037 0.439216 1
0.0930037 0.0930037 0.439216 1
0.0930037 0.0930037 0.439216 1
0.0930037 0.0930037 0.439216 1
0.0930037 0.0930037 0.439216 1
0.0930037 0.0930037 0.439216 1
0.0930037 0.0930037 0.439216 1
0.0930037 0.0930037 0.439216 1
0.0930037 0.0930037 0.439216 1
0.0930037 0.0930037 0.439216 1
0.0930037 0.0930037 0.439216 1
0.0930037 0.0930037 0.439216 1
0.0930037 0.0930037 0.439216 1
0.0930037 0.0930037 0.439216 1
0.0930037 0.0930037 0.439216 1
0.0930037 0.0930037 0.439216 1
0.0930037 0.0930037 0.439216 1
0.0930037 0.0930037 0.439216 1
0.0930037 0.0930037 0.439216 1
0.0930037 0.0930037 0.439216 1
0.0930037 0.0930037 0.439216 1
0.0930037 0.0930037 0.439216 1
0.0930037 0.0930037 0.439216 1
0.0930037 0.0930037 0.439216 1
0.0930037 0.0930037 0.439216 1
0.0930037 0.0930037 0.439216 1
0.0930037 0.0930037 0.439216 1
0.0930037 0.0930037 0.439216 1
0.0930037 0.0930037 0.439216 1
0.0930037 0.0930037 0.439216 1
0.0930037 0.0930037 0.439216 1
0.0930037 0.0930037 0.439216 1
0.0930037 0.0930037 0.439216 1
0.0930037 0.0930037 0.439216 1
0.0930037 0.0930037 0.439216 1
0.0930037 0.0930037 0.439216 1
0.0930037 0.0930037 0.439216 1
0.0930037 0.0930037 0.439216 1
0.0930037 0.0930037 0.439216 1
0.0930037 0.0930037 0.439216 1
0.0930037 0.0930037 0.439216 1
0.0930037 0.0930037 0.439216 1
0.0930037 0.0930037 0.439216 1
0.0930037 0.0930037 0.439216 1
0.0930037 0.0930037 0.439216 1
0.0930037 0.0930037 0.439216 1
0.0930037 0.0930037 0.439216 1
0.0930037 0.0930037 0.439216 1
0.0930037 0.0930037 0.439216 1
0.0930037 0.0930037 0.439216 1
0.0930037 0.0930037 0.439216 1
0.0930037 0.0930037 0.439216 1
0.0930037 0.0930037 0.439216 1
0.0930037 0.0930037 0.439216 1
0.0930037 0.0930037 0.439216 1
0.0930037 0.0930037 0.439216 1
0.0930037 0.0930037 0.439216 1
0.0930037 0.0930037 0.439216 1
0.0930037 0.0930037 0.439216 1
0.0930037 0.0930037 0.439216 1
0.0930037 0.0930037 0.439216 1
0.0930037 0.0930037 0.439216 1
0.0930037 0.0930037 0.439216 1
0.0930037 0.0930037 0.439216 1
0.0930037 0.0930037 0.439216 1
0.0930037 0.0930037 0.439216 1
0.0930037 0.0930037 0.439216 1
0.0930037 0.0930037 0.439216 1
0.0930037 0.0930037 0.439216 1
0.0930037 0.0930037 0.439216 1
0.0930037 0.0930037 0.439216 1
0.0930037 0.0930037 0.439216 1
0.0930037 0.0930037 0.439216 1
0.0930037 0.0930037 0.439216 1
0.0930037 0.0930037 0.439216 1
0.0930037 0.0930037 0.439216 1
0.0930037 0.0930037 0.439216 1
0.0930037 0.0930037 0.439216 1
0.0930037 0.0930037 0.439216 1
0.0930037 0.0930037 0.439216 1
0.0930037 0.0930037 0.439216 1
0.0930037 0.0930037 0.439216 1
0.0930037 0.0930037 0.439216 1
0.0930037 0.0930037 0.439216 1
0.0930037 0.0930037 0.439216 1
0.0930037 0.0930037 0.439216 1
0.0930037 0.0930037 0.439216 1
0.0930037 0.0930037 0.439216 1
0.0930037 0.0930037 0.439216 1
0.0930037 0.0930037 0.439216 1
0.0930037 0.0930037 0.439216 1
0.0930037 0.0930037 0.439216 1
0.0930037 0.0930037 0.439216 1
0.0930037 0.0930037 0.439216 1
0.0930037 0.0930037 0.439216 1
0.0930037 0.0930037 0.439216 1
0.0930037 0.0930037 0.439216 1
0.0930037 0.0930037 0.439216 1
0.0930037 0.0930037 0.439216 1
0.0930037 0.0930037 0.439216 1
0.0930037 0.0930037 0.439216 1
0.0930037 0.0930037 0.439216 1
0.0930037 0.0930037 0.439216 1
0.0930037 0.0930037 0.439216 1
0.0930037 0.0930037 0.439216 1
0.0930037 0.0930037 0.439216 1
0.0930037 0.0930037 0.439216 1
0.0930037 0.0930037 0.439216 1
0.0930037 0.0930037 0.439216 1
0.0930037 0.0930037 0.439216 1
0.0930037 0.0930037 0.439216 1
0.0930037 0.0930037 0.439216 1
0.0930037 0.0930037 0.439216 1
0.0930037 0.0930037 0.439216 1
0.0930037 0.0930037 0.439216 1
0.0930037 0.0930037 0.439216 1
0.0930037 0.0930037 0.439216 1
0.0930037 0.0930037 0.439216 1
0.0930037 0.0930037 0.439216 1
0.0930037 0.0930037 0.439216 1
0.0930037 0.0930037 0.439216 1
0.0930037 0.0930037 0.439216 1
0.0930037 0.0930037 0.439216 1
0.0930037 0.0930037 0.439216 1
0.0930037 0.0930037 0.439216 1
0.0930037 0.0930037 0.439216 1
0.0930037 0.0930037 0.439216 1
0.0930037 0.0930037 0.439216 1
0.0930037 0.0930037 0.439216 1
0.0930037 0.0930037 0.439216 1
0.0930037 0.0930037 0.439216 1
0.0930037 0.0930037 0.439216 1
0.0930037 0.0930037 0.439216 1
0.0930037 0.0930037 0.439216 1
0.0930037 0.0930037 0.439216 1
0.0930037 0.0930037 0.439216 1
0.0930037 0.0930037 0.439216 1
0.0930037 0.0930037 0.439216 1
0.0930037 0.0930037 0.439216 1
0.0930037 0.0930037 0.439216 1
0.0930037 0.0930037 0.439216 1
0.0930037 0.0930037 0.439216 1
0.0930037 0.0930037 0.439216 1
0.0930037 0.0930037 0.439216 1
0.0930037 0.0930037 0.439216 1
0.0930037 0.0930037 0.439216 1
0.0930037 0.0930037 0.439216 1

