# vtk DataFile Version 3.0
Gocad TSurf to VTK
ASCII
DATASET POLYDATA
POINTS 569 float
21552225.000 4555960.000 -446.250
21552525.000 4555952.500 -498.750
21552375.000 4556077.500 -426.250
21552675.000 4555947.500 -543.750
21552050.000 4556025.000 -435.000
21552525.000 4555822.500 -561.250
21552300.000 4555575.000 -563.750
21552600.000 4555825.000 -558.750
21552675.000 4555830.000 -537.500
21552600.000 4555760.000 -582.500
21552600.000 4555630.000 -630.000
21552750.000 4555770.000 -540.000
21552825.000 4555710.000 -542.500
21552900.000 4555822.500 -537.500
21552925.000 4555627.500 -432.500
21552750.000 4555597.500 -492.500
21553350.000 4555825.000 -371.250
21553400.000 4555680.000 -365.000
21553000.000 4555935.000 -551.250
21553300.000 4555985.000 -510.000
21552900.000 4556120.000 -570.000
21553275.000 4556247.500 -481.250
21553700.000 4556090.000 -515.000
21553050.000 4556547.500 -236.250
21552750.000 4556260.000 -532.500
21553300.000 4556395.000 -362.500
21553300.000 4556542.500 -243.750
21553450.000 4556395.000 -390.000
21553675.000 4556240.000 -431.250
21553625.000 4556540.000 -263.750
21553650.000 4556390.000 -347.500
21553200.000 4556690.000 -125.000
21553575.000 4556820.000 -148.750
21553250.000 4556940.000 -55.000
21553400.000 4556950.000 -90.000
21552300.000 4556680.000 -420.000
21552400.000 4556802.500 -373.750
21552200.000 4556547.500 -416.250
21551800.000 4556415.000 -502.500
21551725.000 4556787.500 -473.750
21552000.000 4556282.500 -408.750
21551775.000 4556092.500 -412.500
21551325.000 4556115.000 -528.750
21551800.000 4555910.000 -380.000
21551300.000 4555987.500 -490.000
21552075.000 4555560.000 -428.750
21551925.000 4555532.500 -481.250
21551900.000 4555380.000 -490.000
21551400.000 4555650.000 -232.500
21551500.000 4555440.000 -355.000
21551200.000 4555240.000 -390.000
21551600.000 4555320.000 -545.000
21551725.000 4555270.000 -467.500
21551500.000 4555160.000 -412.500
21551625.000 4555262.500 -467.500
21551300.000 4555120.000 -335.000
21551125.000 4555137.500 -341.250
21551675.000 4555147.500 -312.500
21551475.000 4554997.500 -180.000
21551650.000 4555205.000 -390.000
21551750.000 4555210.000 -390.000
21551875.000 4555307.500 -426.250
21551850.000 4555235.000 -362.500
21551950.000 4555280.000 -322.500
21551825.000 4555162.500 -298.750
21551975.000 4555230.000 -238.750
21552300.000 4555440.000 -335.000
21551700.000 4555065.000 -120.000
21552000.000 4555155.000 123.750
21552400.000 4555300.000 170.000
21551600.000 4555010.000 77.500
21551200.000 4554865.000 31.250
21551100.000 4554835.000 -50.000
21551250.000 4554905.000 -125.000
21550800.000 4554720.000 -15.000
21550950.000 4554790.000 -81.250
21551100.000 4554860.000 -147.500
21550825.000 4554747.500 -60.000
21550850.000 4554775.000 -105.000
21550775.000 4554755.000 -150.000
21550650.000 4554680.000 -105.000
21550900.000 4554830.000 -195.000
21550000.000 4554560.000 0.000
21550300.000 4554537.500 -11.250
21550125.000 4554700.000 -93.750
21550700.000 4554975.000 -285.000
21550025.000 4554685.000 -118.750
21550050.000 4554810.000 -237.500
21549725.000 4554627.500 -87.500
21549950.000 4554785.000 -237.500
21548300.000 4554185.000 111.250
21548500.000 4554400.000 -42.500
21548886.281 4554214.164 155.334
21548345.078 4554086.027 197.955
21548920.813 4554219.508 152.347
21548996.344 4554200.625 156.215
21549875.000 4554447.500 42.500
21549042.672 4554189.039 158.588
21550025.000 4554520.000 3.750
21550075.000 4554440.000 11.250
21550400.000 4554530.000 -15.000
21550100.000 4554400.000 15.000
21550525.000 4554605.000 -60.000
21550600.000 4554640.000 -110.000
21549500.000 4554110.000 170.000
21549399.125 4554099.914 176.845
21549264.172 4554133.656 169.933
21549133.359 4554166.367 163.233
21548176.234 4554051.945 206.400
21548125.000 4554157.500 105.000
21548108.688 4554035.145 209.410
21548150.000 4554345.000 -55.000
21548300.000 4554370.000 -55.000
21548000.000 4554320.000 -35.000
21547950.000 4554495.000 -185.000
21547925.000 4554122.500 175.000
21547750.000 4554275.000 85.000
21547788.438 4554098.223 240.243
21547708.688 4554115.973 248.158
21548009.250 4554049.082 218.329
21547575.984 4554145.508 261.330
21547351.469 4554204.152 275.407
21547575.000 4554427.500 -5.000
21547320.422 4554212.262 277.354
21547800.000 4554830.000 -338.750
21548175.000 4554532.500 -215.000
21547700.000 4554990.000 -342.500
21547950.000 4555010.000 -425.000
21546900.000 4554910.000 37.500
21547275.000 4555497.500 -193.750
21546512.031 4554420.082 331.197
21546503.688 4554424.516 332.258
21546587.672 4554403.664 323.299
21546933.203 4554313.402 301.633
21546498.828 4554429.637 333.061
21546475.000 4554625.000 293.750
21546498.828 4554429.637 333.061
21546450.000 4554830.000 252.500
21546425.000 4555035.000 211.250
21546475.000 4554625.000 293.750
21546400.000 4555240.000 170.000
21546425.000 4555035.000 211.250
21546450.000 4555445.000 196.250
21547050.000 4555685.000 -37.500
21546450.000 4555445.000 196.250
21546500.000 4555650.000 222.500
21546550.000 4555855.000 248.750
21546600.000 4556060.000 275.000
21547300.000 4556180.000 -112.500
21547850.000 4556232.500 -333.750
21546825.000 4556262.500 215.000
21546900.000 4556330.000 195.000
21546825.000 4556262.500 215.000
21547275.000 4556570.000 247.500
21547650.000 4556475.000 -20.000
21547400.000 4556650.000 265.000
21548200.000 4556660.000 -125.000
21548425.000 4556212.500 -457.500
21547825.000 4556817.500 156.250
21548400.000 4556920.000 -55.000
21547475.000 4556705.000 261.250
21547550.000 4556760.000 257.500
21547475.000 4556705.000 261.250
21547625.000 4556815.000 253.750
21547700.000 4556870.000 250.000
21548275.000 4556947.500 32.500
21548625.000 4556977.500 -111.250
21547750.000 4556912.500 261.250
21547768.578 4556926.430 265.429
21547750.000 4556910.000 261.250
21547768.578 4556926.430 265.429
21547768.500 4556928.230 265.414
21547768.641 4556924.906 265.443
21547816.672 4556949.914 264.074
21547886.656 4556986.336 262.080
21547949.594 4557019.090 260.286
21549075.000 4557092.500 -223.750
21547980.609 4557034.289 259.412
21547987.094 4557037.465 259.229
21549300.000 4557150.000 -280.000
21549225.000 4557100.000 -266.250
21548015.719 4557057.195 258.367
21548127.641 4557122.563 247.561
21548127.969 4557122.754 247.530
21549175.000 4557212.500 -182.500
21549650.000 4557350.000 -182.500
21548133.563 4557126.020 246.990
21548350.000 4557215.000 202.500
21548575.000 4557307.500 156.250
21548133.563 4557126.020 246.990
21548925.000 4557337.500 12.500
21548800.000 4557400.000 110.000
21549825.000 4557450.000 -133.750
21550000.000 4557550.000 -85.000
21549950.000 4557370.000 -280.000
21550000.000 4557150.000 -475.000
21549975.000 4557460.000 -182.500
21550100.000 4557470.000 -175.000
21550925.000 4557575.000 -280.000
21551100.000 4557690.000 -225.000
21550200.000 4557390.000 -265.000
21550575.000 4557345.000 -390.000
21550100.000 4557380.000 -280.000
21550150.000 4557295.000 -377.500
21550225.000 4557165.000 -475.000
21550400.000 4557230.000 -445.000
21550275.000 4557075.000 -475.000
21549675.000 4557037.500 -373.750
21550325.000 4557080.000 -467.500
21550600.000 4557040.000 -490.000
21550375.000 4556940.000 -551.250
21550500.000 4557135.000 -467.500
21550700.000 4557100.000 -437.500
21550900.000 4557220.000 -332.500
21551000.000 4557227.500 -293.750
21551000.000 4557175.000 -307.500
21551025.000 4557382.500 -266.250
21550300.000 4557310.000 -355.000
21551350.000 4557505.000 -160.000
21551075.000 4557587.500 -238.750
21552125.000 4557717.500 -368.750
21551775.000 4557452.500 -186.250
21552300.000 4557850.000 -460.000
21551950.000 4558020.000 -502.500
21552400.000 4557380.000 -210.000
21552200.000 4557255.000 -175.000
21552950.000 4557675.000 -362.500
21552800.000 4557410.000 -180.000
21552800.000 4558140.000 -642.500
21553175.000 4557820.000 -440.000
21552750.000 4558655.000 -592.500
21552875.000 4558537.500 -638.750
21551725.000 4559270.000 -433.750
21552250.000 4559525.000 -487.500
21551250.000 4558360.000 -420.000
21550900.000 4558530.000 -295.000
21551350.000 4557940.000 -385.000
21550975.000 4557770.000 -231.250
21550150.000 4557665.000 -126.250
21550600.000 4558010.000 -250.000
21549650.000 4557665.000 7.500
21549175.000 4557685.000 102.500
21549300.000 4557780.000 100.000
21550000.000 4558085.000 -70.000
21549375.000 4558065.000 107.500
21549400.000 4558160.000 110.000
21549375.000 4558065.000 107.500
21549650.000 4558317.500 37.500
21550400.000 4558790.000 -180.000
21549325.000 4558400.000 102.500
21549300.000 4558480.000 100.000
21549850.000 4558845.000 -35.000
21550700.000 4559172.500 -180.000
21549300.000 4558585.000 102.500
21549300.000 4558690.000 105.000
21549300.000 4558795.000 107.500
21549300.000 4558900.000 110.000
21550800.000 4559300.000 -180.000
21551200.000 4559215.000 -305.000
21552100.000 4559690.000 -445.000
21551975.000 4559550.000 -441.250
21552600.000 4559730.000 -475.000
21552675.000 4559317.500 -471.250
21552600.000 4559830.000 -475.000
21552900.000 4559820.000 -400.000
21553000.000 4559950.000 -375.000
21553375.000 4559740.000 -163.750
21553725.000 4560040.000 38.750
21553975.000 4559920.000 151.250
21553900.000 4560190.000 140.000
21553925.000 4560100.000 143.750
21553950.000 4560010.000 147.500
21554000.000 4559830.000 155.000
21553350.000 4559365.000 -230.000
21553875.000 4559657.500 67.500
21553500.000 4559140.000 -195.000
21554100.000 4559707.500 143.750
21554200.000 4559585.000 132.500
21554300.000 4559462.500 121.250
21554400.000 4559340.000 110.000
21554175.000 4559132.500 -60.000
21553500.000 4558982.500 -288.750
21554500.000 4559190.000 135.000
21554600.000 4559040.000 160.000
21553950.000 4558925.000 -230.000
21554700.000 4558890.000 185.000
21553725.000 4558717.500 -400.000
21553500.000 4558667.500 -476.250
21554800.000 4558740.000 210.000
21553475.000 4558380.000 -556.250
21554650.000 4558577.500 70.000
21554200.000 4558090.000 -350.000
21554875.000 4558605.000 133.750
21554950.000 4558470.000 57.500
21554975.000 4558617.500 178.750
21555150.000 4558495.000 147.500
[...]
POINT_DATA 569
COLOR_SCALARS GocadColor 4
0.960784 0.870588 0.701961 1
0.960784 0.870588 0.701961 1
0.960784 0.870588 0.701961 1
0.960784 0.870588 0.701961 1
0.960784 0.870588 0.701961 1
0.960784 0.870588 0.701961 1
0.960784 0.870588 0.701961 1
0.960784 0.870588 0.701961 1
0.960784 0.870588 0.701961 1
0.960784 0.870588 0.701961 1
0.960784 0.870588 0.701961 1
0.960784 0.870588 0.701961 1
0.960784 0.870588 0.701961 1
0.960784 0.870588 0.701961 1
0.960784 0.870588 0.701961 1
0.960784 0.870588 0.701961 1
0.960784 0.870588 0.701961 1
0.960784 0.870588 0.701961 1
0.960784 0.870588 0.701961 1
0.960784 0.870588 0.701961 1
0.960784 0.870588 0.701961 1
0.960784 0.870588 0.701961 1
0.960784 0.870588 0.701961 1
0.960784 0.870588 0.701961 1
0.960784 0.870588 0.701961 1
0.960784 0.870588 0.701961 1
0.960784 0.870588 0.701961 1
0.960784 0.870588 0.701961 1
0.960784 0.870588 0.701961 1
0.960784 0.870588 0.701961 1
0.960784 0.870588 0.701961 1
0.960784 0.870588 0.701961 1
0.960784 0.870588 0.701961 1
0.960784 0.870588 0.701961 1
0.960784 0.870588 0.701961 1
0.960784 0.870588 0.701961 1
0.960784 0.870588 0.701961 1
0.960784 0.870588 0.701961 1
0.960784 0.870588 0.701961 1
0.960784 0.870588 0.701961 1
0.960784 0.870588 0.701961 1
0.960784 0.870588 0.701961 1
0.960784 0.870588 0.701961 1
0.960784 0.870588 0.701961 1
0.960784 0.870588 0.701961 1
0.960784 0.870588 0.701961 1
0.960784 0.870588 0.701961 1
0.960784 0.870588 0.701961 1
0.960784 0.870588 0.701961 1
0.960784 0.870588 0.701961 1
0.960784 0.870588 0.701961 1
0.960784 0.870588 0.701961 1
0.960784 0.870588 0.701961 1
0.960784 0.870588 0.701961 1
0.960784 0.870588 0.701961 1
0.960784 0.870588 0.701961 1
0.960784 0.870588 0.701961 1
0.960784 0.870588 0.701961 1
0.960784 0.870588 0.701961 1
0.960784 0.870588 0.701961 1
0.960784 0.870588 0.701961 1
0.960784 0.870588 0.701961 1
0.960784 0.870588 0.701961 1
0.960784 0.870588 0.701961 1
0.960784 0.870588 0.701961 1
0.960784 0.870588 0.701961 1
0.960784 0.870588 0.701961 1
0.960784 0.870588 0.701961 1
0.960784 0.870588 0.701961 1
0.960784 0.870588 0.701961 1
0.960784 0.870588 0.701961 1
0.960784 0.870588 0.701961 1
0.960784 0.870588 0.701961 1
0.960784 0.870588 0.701961 1
0.960784 0.870588 0.701961 1
0.960784 0.870588 0.701961 1
0.960784 0.870588 0.701961 1
0.960784 0.870588 0.701961 1
0.960784 0.870588 0.701961 1
0.960784 0.870588 0.701961 1
0.960784 0.870588 0.701961 1
0.960784 0.870588 0.701961 1
0.960784 0.870588 0.701961 1
0.960784 0.870588 0.701961 1
0.960784 0.870588 0.701961 1
0.960784 0.870588 0.701961 1
0.960784 0.870588 0.701961 1
0.960784 0.870588 0.701961 1
0.960784 0.870588 0.701961 1
0.960784 0.870588 0.701961 1
0.960784 0.870588 0.701961 1
0.960784 0.870588 0.701961 1
0.960784 0.870588 0.701961 1
0.960784 0.870588 0.701961 1
0.960784 0.870588 0.701961 1
0.960784 0.870588 0.701961 1
0.960784 0.870588 0.701961 1
0.960784 0.870588 0.701961 1
0.960784 0.870588 0.701961 1
0.960784 0.870588 0.701961 1
0.960784 0.870588 0.701961 1
0.960784 0.870588 0.701961 1
0.960784 0.870588 0.701961 1
0.960784 0.870588 0.701961 1
0.960784 0.870588 0.701961 1
0.960784 0.870588 0.701961 1
0.960784 0.870588 0.701961 1
0.960784 0.870588 0.701961 1
0.960784 0.870588 0.701961 1
0.960784 0.870588 0.701961 1
0.960784 0.870588 0.701961 1
0.960784 0.870588 0.701961 1
0.960784 0.870588 0.701961 1
0.960784 0.870588 0.701961 1
0.960784 0.870588 0.701961 1
0.960784 0.870588 0.701961 1
0.960784 0.870588 0.701961 1
0.960784 0.870588 0.701961 1
0.960784 0.870588 0.701961 1
0.960784 0.870588 0.701961 1
0.960784 0.870588 0.701961 1
0.960784 0.870588 0.701961 1
0.960784 0.870588 0.701961 1
0.960784 0.870588 0.701961 1
0.960784 0.870588 0.701961 1
0.960784 0.870588 0.701961 1
0.960784 0.870588 0.701961 1
0.960784 0.870588 0.701961 1
0.960784 0.870588 0.701961 1
0.960784 0.870588 0.701961 1
0.960784 0.870588 0.701961 1
0.960784 0.870588 0.701961 1
0.960784 0.870588 0.701961 1
0.960784 0.870588 0.701961 1
0.960784 0.870588 0.701961 1
0.960784 0.870588 0.701961 1
0.960784 0.870588 0.701961 1
0.960784 0.870588 0.701961 1
0.960784 0.870588 0.701961 1
0.960784 0.870588 0.701961 1
0.960784 0.870588 0.701961 1
0.960784 0.870588 0.701961 1
0.960784 0.870588 0.701961 1
0.960784 0.870588 0.701961 1
0.960784 0.870588 0.701961 1
0.960784 0.870588 0.701961 1
0.960784 0.870588 0.701961 1
0.960784 0.870588 0.701961 1
0.960784 0.870588 0.701961 1
0.960784 0.870588 0.701961 1
0.960784 0.870588 0.701961 1
0.960784 0.870588 0.701961 1
0.960784 0.870588 0.701961 1
0.960784 0.870588 0.701961 1
0.960784 0.870588 0.701961 1
0.960784 0.870588 0.701961 1
0.960784 0.870588 0.701961 1
0.960784 0.870588 0.701961 1
0.960784 0.870588 0.701961 1
0.960784 0.870588 0.701961 1
0.960784 0.870588 0.701961 1
0.960784 0.870588 0.701961 1
0.960784 0.870588 0.701961 1
0.960784 0.870588 0.701961 1
0.960784 0.870588 0.701961 1
0.960784 0.870588 0.701961 1
0.960784 0.870588 0.701961 1
0.960784 0.870588 0.701961 1
0.960784 0.870588 0.701961 1
0.960784 0.870588 0.701961 1
0.960784 0.870588 0.701961 1
0.960784 0.870588 0.701961 1
0.960784 0.870588 0.701961 1
0.960784 0.870588 0.701961 1
0.960784 0.870588 0.701961 1
0.960784 0.870588 0.701961 1
0.960784 0.870588 0.701961 1
0.960784 0.870588 0.701961 1
0.960784 0.870588 0.701961 1
0.960784 0.870588 0.701961 1
0.960784 0.870588 0.701961 1
0.960784 0.870588 0.701961 1
0.960784 0.870588 0.701961 1
0.960784 0.870588 0.701961 1
0.960784 0.870588 0.701961 1
0.960784 0.870588 0.701961 1
0.960784 0.870588 0.701961 1
0.960784 0.870588 0.701961 1
0.960784 0.870588 0.701961 1
0.960784 0.870588 0.701961 1
0.960784 0.870588 0.701961 1
0.960784 0.870588 0.701961 1
0.960784 0.870588 0.701961 1
0.960784 0.870588 0.701961 1
0.960784 0.870588 0.701961 1
0.960784 0.870588 0.701961 1
0.960784 0.870588 0.701961 1
0.960784 0.870588 0.701961 1
0.960784 0.870588 0.701961 1
0.960784 0.870588 0.701961 1
0.960784 0.870588 0.701961 1
0.960784 0.870588 0.701961 1
0.960784 0.870588 0.701961 1
0.960784 0.870588 0.701961 1
0.960784 0.870588 0.701961 1
0.960784 0.870588 0.701961 1
0.960784 0.870588 0.701961 1
0.960784 0.870588 0.701961 1
0.960784 0.870588 0.701961 1
0.960784 0.870588 0.701961 1
0.960784 0.870588 0.701961 1
0.960784 0.870588 0.701961 1
0.960784 0.870588 0.701961 1
0.960784 0.870588 0.701961 1
0.960784 0.870588 0.701961 1
0.960784 0.870588 0.701961 1
0.960784 0.870588 0.701961 1
0.960784 0.870588 0.701961 1
0.960784 0.870588 0.701961 1
0.960784 0.870588 0.701961 1
0.960784 0.870588 0.701961 1
0.960784 0.870588 0.701961 1
0.960784 0.870588 0.701961 1
0.960784 0.870588 0.701961 1
0.960784 0.870588 0.701961 1
0.960784 0.870588 0.701961 1
0.960784 0.870588 0.701961 1
0.960784 0.870588 0.701961 1
0.960784 0.870588 0.701961 1
0.960784 0.870588 0.701961 1
0.960784 0.870588 0.701961 1
0.960784 0.870588 0.701961 1
0.960784 0.870588 0.701961 1
0.960784 0.870588 0.701961 1
0.960784 0.870588 0.701961 1
0.960784 0.870588 0.701961 1
0.960784 0.870588 0.701961 1
0.960784 0.870588 0.701961 1
0.960784 0.870588 0.701961 1
0.960784 0.870588 0.701961 1
0.960784 0.870588 0.701961 1
0.960784 0.870588 0.701961 1
0.960784 0.870588 0.701961 1
0.960784 0.870588 0.701961 1
0.960784 0.870588 0.701961 1
0.960784 0.870588 0.701961 1
0.960784 0.870588 0.701961 1
0.960784 0.870588 0.701961 1
0.960784 0.870588 0.701961 1
0.960784 0.870588 0.701961 1
0.960784 0.870588 0.701961 1
0.960784 0.870588 0.701961 1
0.960784 0.870588 0.701961 1
0.960784 0.870588 0.701961 1
0.960784 0.870588 0.701961 1
0.960784 0.870588 0.701961 1
0.960784 0.870588 0.701961 1
0.960784 0.870588 0.701961 1
0.960784 0.870588 0.701961 1
0.960784 0.870588 0.701961 1
0.960784 0.870588 0.701961 1
0.960784 0.870588 0.701961 1
0.960784 0.870588 0.701961 1
0.960784 0.870588 0.701961 1
0.960784 0.870588 0.701961 1
0.960784 0.870588 0.701961 1
0.960784 0.870588 0.701961 1
0.960784 0.870588 0.701961 1
0.960784 0.870588 0.701961 1
0.960784 0.870588 0.701961 1
0.960784 0.870588 0.701961 1
0.960784 0.870588 0.701961 1
0.960784 0.870588 0.701961 1
0.960784 0.870588 0.701961 1
0.960784 0.870588 0.701961 1
0.960784 0.870588 0.701961 1
0.960784 0.870588 0.701961 1
0.960784 0.870588 0.701961 1
0.960784 0.870588 0.701961 1
0.960784 0.870588 0.701961 1
0.960784 0.870588 0.701961 1
0.960784 0.870588 0.701961 1
0.960784 0.870588 0.701961 1
0.960784 0.870588 0.701961 1
0.960784 0.870588 0.701961 1
0.960784 0.870588 0.701961 1
0.960784 0.870588 0.701961 1
0.960784 0.870588 0.701961 1
0.960784 0.870588 0.701961 1
0.960784 0.870588 0.701961 1
0.960784 0.870588 0.701961 1
0.960784 0.870588 0.701961 1
0.960784 0.870588 0.701961 1
0.960784 0.870588 0.701961 1
0.960784 0.870588 0.701961 1
0.960784 0.870588 0.701961 1
0.960784 0.870588 0.701961 1
0.960784 0.870588 0.701961 1
0.960784 0.870588 0.701961 1
0.960784 0.870588 0.701961 1
0.960784 0.870588 0.701961 1
0.960784 0.870588 0.701961 1
0.960784 0.870588 0.701961 1
0.960784 0.870588 0.701961 1
0.960784 0.870588 0.701961 1
0.960784 0.870588 0.701961 1
0.960784 0.870588 0.701961 1
0.960784 0.870588 0.701961 1
0.960784 0.870588 0.701961 1
0.960784 0.870588 0.701961 1
0.960784 0.870588 0.701961 1
0.960784 0.870588 0.701961 1
0.960784 0.870588 0.701961 1
0.960784 0.870588 0.701961 1
0.960784 0.870588 0.701961 1
0.960784 0.870588 0.701961 1
0.960784 0.870588 0.701961 1
0.960784 0.870588 0.701961 1
0.960784 0.870588 0.701961 1
0.960784 0.870588 0.701961 1
0.960784 0.870588 0.701961 1
0.960784 0.870588 0.701961 1
0.960784 0.870588 0.701961 1
0.960784 0.870588 0.701961 1
0.960784 0.870588 0.701961 1
0.960784 0.870588 0.701961 1
0.960784 0.870588 0.701961 1
0.960784 0.870588 0.701961 1
0.960784 0.870588 0.701961 1
0.960784 0.870588 0.701961 1
0.960784 0.870588 0.701961 1
0.960784 0.870588 0.701961 1
0.960784 0.870588 0.701961 1
0.960784 0.870588 0.701961 1
0.960784 0.870588 0.701961 1
0.960784 0.870588 0.701961 1
0.960784 0.870588 0.701961 1
0.960784 0.870588 0.701961 1
0.960784 0.870588 0.701961 1
0.960784 0.870588 0.701961 1
0.960784 0.870588 0.701961 1
0.960784 0.870588 0.701961 1
0.960784 0.870588 0.701961 1
0.960784 0.870588 0.701961 1
0.960784 0.870588 0.701961 1
0.960784 0.870588 0.701961 1
0.960784 0.870588 0.701961 1
0.960784 0.870588 0.701961 1
0.960784 0.870588 0.701961 1
0.960784 0.870588 0.701961 1
0.960784 0.870588 0.701961 1
0.960784 0.870588 0.701961 1
0.960784 0.870588 0.701961 1
0.960784 0.870588 0.701961 1
0.960784 0.870588 0.701961 1
0.960784 0.870588 0.701961 1
0.960784 0.870588 0.701961 1
0.960784 0.870588 0.701961 1
0.960784 0.870588 0.701961 1
0.960784 0.870588 0.701961 1
0.960784 0.870588 0.701961 1
0.960784 0.870588 0.701961 1
0.960784 0.870588 0.701961 1
0.960784 0.870588 0.701961 1
0.960784 0.870588 0.701961 1
0.960784 0.870588 0.701961 1
0.960784 0.870588 0.701961 1
0.960784 0.870588 0.701961 1
0.960784 0.870588 0.701961 1
0.960784 0.870588 0.701961 1
0.960784 0.870588 0.701961 1
0.960784 0.870588 0.701961 1
0.960784 0.870588 0.701961 1
0.960784 0.870588 0.701961 1
0.960784 0.870588 0.701961 1
0.960784 0.870588 0.701961 1
0.960784 0.870588 0.701961 1
0.960784 0.870588 0.701961 1
0.960784 0.870588 0.701961 1
0.960784 0.870588 0.701961 1
0.960784 0.870588 0.701961 1
0.960784 0.870588 0.701961 1
0.960784 0.870588 0.701961 1
0.960784 0.870588 0.701961 1
0.960784 0.870588 0.701961 1
0.960784 0.870588 0.701961 1
0.960784 0.870588 0.701961 1
0.960784 0.870588 0.701961 1
0.960784 0.870588 0.701961 1
0.960784 0.870588 0.701961 1
0.960784 0.870588 0.701961 1
0.960784 0.870588 0.701961 1
0.960784 0.870588 0.701961 1
0.960784 0.870588 0.701961 1
0.960784 0.870588 0.701961 1
0.960784 0.870588 0.701961 1
0.960784 0.870588 0.701961 1
0.960784 0.870588 0.701961 1
0.960784 0.870588 0.701961 1
0.960784 0.870588 0.701961 1
0.960784 0.870588 0.701961 1
0.960784 0.870588 0.701961 1
0.960784 0.870588 0.701961 1
0.960784 0.870588 0.701961 1
0.960784 0.870588 0.701961 1
0.960784 0.870588 0.701961 1
0.960784 0.870588 0.701961 1
0.960784 0.870588 0.701961 1
0.960784 0.870588 0.701961 1
0.960784 0.870588 0.701961 1
0.960784 0.870588 0.701961 1
0.960784 0.870588 0.701961 1
0.960784 0.870588 0.701961 1
0.960784 0.870588 0.701961 1
0.960784 0.870588 0.701961 1
0.960784 0.870588 0.701961 1
0.960784 0.870588 0.701961 1
0.960784 0.870588 0.701961 1
0.960784 0.870588 0.701961 1
0.960784 0.870588 0.701961 1
0.960784 0.870588 0.701961 1
0.960784 0.870588 0.701961 1
0.960784 0.870588 0.701961 1
0.960784 0.870588 0.701961 1
0.960784 0.870588 0.701961 1
0.960784 0.870588 0.701961 1
0.960784 0.870588 0.701961 1
0.960784 0.870588 0.701961 1
0.960784 0.870588 0.701961 1
0.960784 0.870588 0.701961 1
0.960784 0.870588 0.701961 1
0.960784 0.870588 0.701961 1
0.960784 0.870588 0.701961 1
0.960784 0.870588 0.701961 1
0.960784 0.870588 0.701961 1
0.960784 0.870588 0.701961 1
0.960784 0.870588 0.701961 1
0.960784 0.870588 0.701961 1
0.960784 0.870588 0.701961 1
0.960784 0.870588 0.701961 1
0.960784 0.870588 0.701961 1
0.960784 0.870588 0.701961 1
0.960784 0.870588 0.701961 1
0.960784 0.870588 0.701961 1
0.960784 0.870588 0.701961 1
0.960784 0.870588 0.701961 1
0.960784 0.870588 0.701961 1
0.960784 0.870588 0.701961 1
0.960784 0.870588 0.701961 1
0.960784 0.870588 0.701961 1
0.960784 0.870588 0.701961 1
0.960784 0.870588 0.701961 1
0.960784 0.870588 0.701961 1
0.960784 0.870588 0.701961 1
0.960784 0.870588 0.701961 1
0.960784 0.870588 0.701961 1
0.960784 0.870588 0.701961 1
0.960784 0.870588 0.701961 1
0.960784 0.870588 0.701961 1
0.960784 0.870588 0.701961 1
0.960784 0.870588 0.701961 1
0.960784 0.870588 0.701961 1
0.960784 0.870588 0.701961 1
0.960784 0.870588 0.701961 1
0.960784 0.870588 0.701961 1
0.960784 0.870588 0.701961 1
0.960784 0.870588 0.701961 1
0.960784 0.870588 0.701961 1
0.960784 0.870588 0.701961 1
0.960784 0.870588 0.701961 1
0.960784 0.870588 0.701961 1
0.960784 0.870588 0.701961 1
0.960784 0.870588 0.701961 1
0.960784 0.870588 0.701961 1
0.960784 0.870588 0.701961 1
0.960784 0.870588 0.701961 1
0.960784 0.870588 0.701961 1
0.960784 0.870588 0.701961 1
0.960784 0.870588 0.701961 1
0.960784 0.870588 0.701961 1
0.960784 0.870588 0.701961 1
0.960784 0.870588 0.701961 1
0.960784 0.870588 0.701961 1
0.960784 0.870588 0.701961 1
0.960784 0.870588 0.701961 1
0.960784 0.870588 0.701961 1
0.960784 0.870588 0.701961 1
0.960784 0.870588 0.701961 1
0.960784 0.870588 0.701961 1
0.960784 0.870588 0.701961 1
0.960784 0.870588 0.701961 1
0.960784 0.870588 0.701961 1
0.960784 0.870588 0.701961 1
0.960784 0.870588 0.701961 1
0.960784 0.870588 0.701961 1
0.960784 0.870588 0.701961 1
0.960784 0.870588 0.701961 1
0.960784 0.870588 0.701961 1
0.960784 0.870588 0.701961 1
0.960784 0.870588 0.701961 1
0.960784 0.870588 0.701961 1
0.960784 0.870588 0.701961 1
0.960784 0.870588 0.701961 1
0.960784 0.870588 0.701961 1
0.960784 0.870588 0.701961 1
0.960784 0.870588 0.701961 1
0.960784 0.870588 0.701961 1
0.960784 0.870588 0.701961 1
0.960784 0.870588 0.701961 1
0.960784 0.870588 0.701961 1
0.960784 0.870588 0.701961 1
0.960784 0.870588 0.701961 1
0.960784 0.870588 0.701961 1
0.960784 0.870588 0.701961 1
0.960784 0.870588 0.701961 1
0.960784 0.870588 0.701961 1
0.960784 0.870588 0.701961 1
0.960784 0.870588 0.701961 1
0.960784 0.870588 0.701961 1
0.960784 0.870588 0.701961 1
0.960784 0.870588 0.701961 1
0.960784 0.870588 0.701961 1
0.960784 0.870588 0.701961 1
0.960784 0.870588 0.701961 1
0.960784 0.870588 0.701961 1
0.960784 0.870588 0.701961 1
0.960784 0.870588 0.701961 1
0.960784 0.870588 0.701961 1
0.960784 0.870588 0.701961 1
0.960784 0.870588 0.701961 1
0.960784 0.870588 0.701961 1
0.960784 0.870588 0.701961 1
0.960784 0.870588 0.701961 1
0.960784 0.870588 0.701961 1
0.960784 0.870588 0.701961 1
0.960784 0.870588 0.701961 1
0.960784 0.870588 0.701961 1
0.960784 0.870588 0.701961 1
0.960784 0.870588 0.701961 1
0.960784 0.870588 0.701961 1
0.960784 0.870588 0.701961 1
0.960784 0.870588 0.701961 1
0.960784 0.870588 0.701961 1
0.960784 0.870588 0.701961 1
0.960784 0.870588 0.701961 1
0.960784 0.870588 0.701961 1
0.960784 0.870588 0.701961 1
0.960784 0.870588 0.701961 1
0.960784 0.870588 0.701961 1
0.960784 0.870588 0.701961 1
0.960784 0.870588 0.701961 1
0.960784 0.870588 0.701961 1
0.960784 0.870588 0.701961 1
0.960784 0.870588 0.701961 1
0.960784 0.870588 0.701961 1
0.960784 0.870588 0.701961 1
0.960784 0.870588 0.701961 1
0.960784 0.870588 0.701961 1
0.960784 0.870588 0.701961 1
0.960784 0.870588 0.701961 1
0.960784 0.870588 0.701961 1
0.960784 0.870588 0.701961 1
0.960784 0.870588 0.701961 1
0.960784 0.870588 0.701961 1
0.960784 0.870588 0.701961 1
0.960784 0.870588 0.701961 1
0.960784 0.870588 0.701961 1
0.960784 0.870588 0.701961 1
0.960784 0.870588 0.701961 1

