# vtk DataFile Version 3.0
Gocad TSurf to VTK
ASCII
DATASET POLYDATA
POINTS 252 float
21574100.000 4580150.000 -480.000
21574625.000 4580487.500 -408.750
21574800.000 4580405.000 -443.750
21574750.000 4580690.000 -335.000
21574000.000 4579970.000 -515.000
21574200.000 4580330.000 -445.000
21574300.000 4580510.000 -410.000
21574400.000 4580690.000 -375.000
21574775.000 4580825.000 -292.500
21574800.000 4580960.000 -250.000
21574400.000 4580795.000 -330.000
21574925.000 4580920.000 -243.750
21575400.000 4580970.000 -130.000
21575200.000 4580580.000 -370.000
21575200.000 4580100.000 -530.000
21575525.000 4580437.500 -376.250
21574850.000 4580035.000 -556.250
21574900.000 4579560.000 -490.000
21574175.000 4580002.500 -526.250
21574250.000 4579652.500 -451.250
21573950.000 4579855.000 -460.000
21573800.000 4579757.500 -355.000
21573600.000 4579545.000 -195.000
21573800.000 4579510.000 -295.000
21573400.000 4579332.500 -35.000
21573200.000 4579120.000 125.000
21573370.219 4579065.977 94.196
21573850.000 4579215.000 -155.000
21573325.000 4579040.000 128.750
21573450.000 4578960.000 132.500
21573575.000 4578880.000 136.250
21573710.672 4578957.922 32.589
21573700.000 4578800.000 140.000
21573880.891 4578903.898 1.785
21573875.000 4579067.500 -85.000
21573850.000 4578670.000 140.000
21574000.000 4578760.000 23.750
21573830.719 4578655.031 175.831
21573905.594 4578572.000 196.354
21573943.656 4578535.586 200.226
21573966.344 4578513.875 202.535
21574000.000 4578540.000 140.000
21574061.938 4578422.414 212.262
21574195.219 4578435.977 105.446
21574100.000 4578600.000 62.500
21574114.484 4578380.453 216.706
21574300.000 4578280.000 140.000
21574425.000 4578590.000 -120.000
21574144.109 4578343.813 220.621
21574246.391 4578245.961 231.027
21574250.688 4578241.719 231.626
21574336.828 4578197.609 238.295
21574412.016 4578203.766 177.035
21574667.031 4578369.047 -72.444
21574377.359 4578176.859 241.432
21574459.844 4578134.625 247.818
21574504.031 4578112.000 251.238
21574524.031 4578127.531 214.070
21574584.063 4578158.094 157.612
21574578.688 4578073.773 257.018
21574630.703 4578047.141 261.043
21574636.047 4578051.297 251.105
21574676.938 4578023.469 264.623
21574726.109 4578097.133 166.418
21574689.719 4578017.914 265.483
21574743.406 4578000.914 262.358
21574801.109 4578147.133 92.668
21574734.063 4578258.094 10.112
21574755.297 4577998.500 261.506
21574962.406 4578022.547 238.766
21575009.688 4578018.570 234.702
21575074.344 4578051.484 173.898
21575150.000 4578350.000 -183.750
21575184.328 4578040.000 215.388
21575241.766 4578047.039 209.037
21575280.547 4578066.781 172.573
21575323.234 4578196.844 -40.019
21575281.969 4578051.977 204.591
21575448.031 4578065.680 200.565
21575456.719 4578066.805 199.477
21575486.734 4578082.086 171.248
21575692.938 4578097.391 169.923
21575669.859 4578174.070 55.018
21575646.781 4578250.758 -59.887
21575860.641 4578051.734 170.027
21575865.938 4578053.695 166.335
21575900.000 4578250.000 -45.000
21576028.344 4578006.086 170.131
21576031.875 4578007.391 167.670
21576015.938 4578166.195 8.835
21576196.031 4577960.438 170.235
21576131.875 4578082.391 62.670
21576319.938 4578027.523 66.500
21576165.938 4578226.195 -51.165
21576246.625 4578128.344 2.666
21576100.000 4578330.000 -125.000
21576275.000 4578317.500 -86.250
21575894.453 4578338.383 -119.365
21575750.313 4578327.063 -167.348
21576044.453 4578398.383 -179.365
21575888.922 4578426.766 -193.730
21576175.000 4578512.500 -135.000
21576128.609 4578477.156 -172.130
21576400.000 4578510.000 -15.000
21576325.000 4578580.000 -52.500
21576473.563 4578411.633 18.700
21576548.563 4578471.633 146.200
21576350.000 4578215.000 -47.500
21576450.000 4578260.000 7.500
21576400.000 4578090.000 -8.750
21576500.000 4578010.000 30.000
21576475.000 4578135.000 18.750
21576393.250 4577926.695 130.333
21576363.734 4577914.781 170.339
21576600.000 4578070.000 30.000
21576550.000 4578180.000 18.750
21576620.703 4578214.898 86.101
21576547.125 4578313.266 52.400
21576694.266 4578116.531 119.801
21576645.703 4578234.898 128.601
21576597.125 4578353.266 137.400
21576500.000 4578590.000 155.000
21576423.813 4578629.227 36.615
21576499.484 4578633.102 158.959
21576494.828 4578683.422 157.042
21576502.031 4578609.789 159.843
21576494.703 4578685.938 157.131
21576490.594 4578773.289 160.223
21576175.000 4578720.000 -127.500
21576483.953 4578785.547 160.480
21576150.000 4578605.000 -145.000
21576099.016 4578933.578 -217.451
21575988.922 4578466.766 -233.730
21575914.438 4578648.609 -313.521
21576025.000 4578887.500 -248.750
21575883.375 4578515.148 -268.095
21575885.828 4578781.453 -360.141
21575685.438 4578403.016 -219.765
21575550.469 4578540.594 -346.023
21575150.156 4578633.531 -376.174
21575758.375 4578690.148 -385.595
21575519.453 4578863.383 -471.865
21575838.922 4578891.766 -421.230
21575800.000 4579180.000 -500.000
21575950.000 4578985.000 -332.500
21576142.750 4579118.391 -248.832
21576262.938 4579331.813 -201.633
21576536.969 4579169.742 176.875
21576164.125 4579282.586 -290.748
21576185.500 4579446.781 -332.664
21576142.813 4579413.859 -345.372
21576039.125 4579587.586 -374.498
21575871.406 4579711.930 -422.686
21576139.125 4579652.586 -305.748
21576575.000 4579920.000 53.750
21576300.000 4579990.000 -97.500
21576580.047 4579525.273 64.714
21576900.000 4579850.000 195.000
21576549.516 4579198.125 178.347
21576691.547 4579449.836 192.139
21576540.859 4579178.953 177.348
21576797.438 4579633.211 202.243
21576837.078 4579701.875 206.027
21576800.000 4580032.500 188.750
21576550.000 4580140.000 92.500
21576700.000 4580215.000 182.500
21576600.000 4580397.500 176.250
21576500.000 4580580.000 170.000
21576050.000 4580475.000 -112.500
21576150.000 4580135.000 -153.750
21576425.000 4580700.000 172.500
21576100.000 4580670.000 -15.000
21576425.000 4580697.500 172.500
21576350.000 4580815.000 175.000
21576275.000 4580932.500 177.500
21576200.000 4581050.000 180.000
21576075.000 4581055.000 121.250
21575600.000 4580810.000 -195.000
21576150.000 4581100.000 177.500
21576150.000 4581107.500 177.500
21576100.000 4581155.000 175.000
21576100.000 4581150.000 175.000
21576050.000 4581200.000 172.500
21576000.000 4581250.000 170.000
21575700.000 4581150.000 -2.500
21575775.000 4581422.500 158.750
21575700.000 4581480.000 155.000
21575050.000 4581300.000 -55.000
21575600.000 4581520.000 151.250
21574725.000 4581177.500 -145.000
21575175.000 4581470.000 42.500
21574700.000 4580997.500 -236.250
21574500.000 4581072.500 -208.750
21574400.000 4580900.000 -285.000
21574400.000 4581005.000 -240.000
21574400.000 4581110.000 -195.000
21574700.000 4581250.000 -110.000
21574450.000 4581235.000 -121.250
21575300.000 4581640.000 140.000
21574725.000 4581372.500 -40.000
21575400.000 4581600.000 143.750
21575500.000 4581560.000 147.500
21575600.000 4581520.000 151.250
21574675.000 4581340.000 -57.500
21575175.000 4581665.000 147.500
21574775.000 4581617.500 100.000
21575111.578 4581677.688 151.306
21575111.578 4581677.688 151.306
21574908.422 4581681.258 142.712
21574880.844 4581686.297 144.099
21574792.344 4581702.461 148.548
21574744.828 4581704.141 150.691
21574600.000 4581610.000 100.000
21574625.000 4581520.000 47.500
21574550.000 4581485.000 26.250
21574650.000 4581430.000 -5.000
21574500.000 4581360.000 -47.500
21576000.000 4580270.000 -225.000
21575575.000 4580152.500 -458.750
21576092.750 4579858.391 -278.832
21575724.016 4579848.578 -468.701
21575350.000 4579395.000 -530.000
21575700.000 4579595.000 -500.000
21575375.000 4579172.500 -522.500
21575400.000 4578950.000 -515.000
21575275.000 4579102.500 -508.750
21574975.000 4578922.500 -426.250
21575150.000 4579255.000 -502.500
21574950.000 4579135.000 -447.500
21574400.000 4579240.000 -335.000
21574700.000 4578975.000 -370.000
21573950.000 4579442.500 -305.000
21574025.000 4579172.500 -220.000
21573875.000 4579397.500 -270.000
21573950.000 4579285.000 -245.000
21574100.000 4579060.000 -195.000
21574450.000 4579050.000 -290.000
21574225.000 4578915.000 -185.000
21574075.000 4578810.000 -50.000
21574500.000 4578860.000 -245.000
21574350.000 4578770.000 -175.000
21574250.000 4578700.000 -85.000
21574550.000 4578670.000 -200.000
21574850.000 4578842.500 -387.500
21575000.000 4578710.000 -405.000
21574750.000 4578417.500 -143.750
21575050.000 4578590.000 -331.250
21575100.000 4578470.000 -257.500
21575050.000 4578292.500 -121.250
21576476.469 4578989.195 167.971
21576474.391 4578967.469 167.023
21576475.719 4578939.633 165.905

POLYGONS 402 1608
3 103 104 122
3 121 122 123
3 245 246 248
3 58 53 67
3 60 57 61
3 55 54 52
3 13 177 15
3 41 35 36
3 131 146 147
3 110 92 109
3 149 153 154
3 215 213 205
3 16 2 14
3 76 71 72
3 176 171 177
3 137 135 100
3 32 33 35
3 131 128 130
3 146 156 158
3 138 140 135
3 86 85 82
3 227 228 17
3 161 156 162
3 22 21 20
3 75 79 78
3 6 7 1
3 133 134 130
3 76 72 137
3 121 103 122
3 191 192 189
3 183 182 176
3 26 23 27
3 141 138 139
3 246 247 248
3 117 105 120
3 241 238 237
3 30 29 26
3 230 236 229
3 163 157 154
3 56 55 52
3 33 31 34
3 166 165 164
3 95 99 101
3 156 161 159
3 138 137 139
3 83 82 80
3 179 178 176
3 41 36 44
3 220 222 221
3 231 19 229
3 118 116 119
3 7 8 1
3 141 140 138
3 177 171 15
3 51 46 52
3 67 53 245
3 197 196 195
3 95 86 97
3 4 0 2
3 18 2 16
3 226 243 230
3 122 128 127
3 50 49 46
3 85 86 89
3 213 215 214
3 205 213 212
3 3 11 13
3 54 51 52
3 177 184 176
3 112 113 92
3 63 67 66
3 155 219 169
3 169 217 168
3 8 7 9
3 61 57 58
3 67 245 248
3 238 241 44
3 117 115 108
3 141 143 142
3 128 129 127
3 19 16 17
3 12 186 184
3 74 73 71
3 131 249 250
3 46 53 52
3 199 198 196
3 9 191 189
3 65 64 63
3 235 238 33
3 70 66 71
3 145 148 146
3 184 185 183
3 181 178 179
3 34 235 33
3 218 220 14
3 164 169 168
3 77 75 78
3 113 90 92
3 76 83 80
3 137 98 83
3 85 89 88
3 235 232 229
3 51 50 46
3 205 212 211
3 10 9 7
3 172 167 170
3 207 205 208
3 236 230 239
3 42 41 43
3 108 107 105
3 123 122 124
3 40 39 35
3 99 100 132
3 2 13 14
3 241 47 43
3 148 149 146
3 9 189 187
3 5 1 0
3 228 225 226
3 134 131 130
3 62 60 61
3 109 92 94
3 66 67 248
3 122 104 128
3 99 102 101
3 128 131 250
3 71 66 72
3 45 42 43
3 92 91 94
3 83 76 137
3 173 170 171
3 137 100 98
3 170 168 171
3 135 137 138
3 193 191 10
3 27 31 26
3 84 81 82
3 33 32 31
3 191 9 10
3 24 23 25
3 143 223 222
3 117 120 119
3 46 47 53
3 19 23 20
3 187 190 201
3 242 240 239
3 23 24 22
3 23 231 233
3 44 241 43
3 171 168 15
3 171 175 174
3 13 15 14
3 131 147 249
3 219 217 169
3 231 23 19
3 124 122 126
3 137 72 139
3 116 118 114
3 216 203 197
3 20 4 18
3 248 247 72
3 39 38 35
3 77 74 75
3 48 45 46
3 201 202 188
3 88 89 91
3 70 69 66
3 205 210 209
3 167 166 164
3 238 36 33
3 11 9 12
3 184 186 185
3 145 144 143
3 164 155 169
3 226 244 243
3 35 37 32
3 58 67 63
3 143 150 145
3 142 140 141
3 5 6 1
3 3 13 2
3 17 16 14
3 204 205 207
3 96 103 105
3 8 3 1
3 15 218 14
3 173 172 170
3 62 61 63
3 165 163 164
3 134 144 131
3 164 163 154
3 111 110 109
3 19 18 16
3 184 183 176
3 130 102 132
3 68 65 66
3 199 215 205
3 100 97 98
3 87 85 88
3 223 221 222
3 150 149 148
3 156 149 154
3 219 153 152
3 42 40 41
3 49 48 46
3 238 44 36
3 190 198 200
3 107 108 109
3 190 189 196
3 188 187 201
3 175 171 176
3 232 234 231
3 95 96 93
3 71 76 75
3 191 193 192
3 144 142 143
3 190 196 198
3 156 159 158
3 243 244 242
3 215 203 216
3 83 98 86
3 192 195 196
3 90 91 92
3 65 63 66
3 233 234 27
3 245 244 246
3 244 224 139
3 239 237 236
3 146 149 156
3 23 233 27
3 187 189 190
3 53 58 52
3 206 204 207
3 66 248 72
3 232 231 229
3 74 71 75
3 227 225 228
3 104 101 128
3 229 17 228
3 99 97 100
3 204 199 205
3 239 243 242
3 193 194 192
3 170 167 168
3 116 117 119
3 222 220 152
3 81 79 80
3 132 100 135
3 240 241 237
3 179 176 180
3 108 111 109
3 227 223 225
3 26 29 28
3 223 224 225
3 82 83 86
3 84 85 87
3 140 136 135
3 87 88 90
3 114 110 111
3 73 70 71
3 251 128 250
3 232 34 27
3 220 219 152
3 224 143 141
3 31 30 26
3 150 148 145
3 144 136 142
3 82 81 80
3 132 133 130
3 88 91 90
3 18 4 2
3 230 243 239
3 69 68 66
3 86 95 89
3 151 150 152
3 60 59 57
3 85 84 82
3 223 143 224
3 47 242 53
3 225 224 226
3 126 122 127
3 38 37 35
3 11 8 9
3 58 57 52
3 153 219 155
3 228 230 229
3 232 235 34
3 115 111 108
3 153 151 152
3 239 240 237
3 234 232 27
3 145 146 131
3 47 240 242
3 64 62 63
3 221 17 14
3 218 15 217
3 210 205 211
3 150 143 222
3 47 46 43
3 140 142 136
3 80 75 76
3 79 75 80
3 190 200 201
3 181 179 180
3 217 219 220
3 110 112 92
3 153 155 154
3 23 22 20
3 105 103 106
3 236 235 229
3 231 234 233
3 139 224 141
3 247 246 139
3 12 184 177
3 175 176 178
3 114 111 115
3 56 52 57
3 160 146 158
3 20 21 4
3 12 177 13
3 34 31 27
3 25 23 26
3 147 146 160
3 102 99 132
3 149 151 153
3 221 227 17
3 204 198 199
3 156 157 162
3 95 97 99
3 102 130 101
3 168 217 15
3 199 203 215
3 167 164 168
3 188 186 187
3 222 152 150
3 244 245 53
3 105 117 108
3 128 251 129
3 35 33 36
3 103 121 106
3 125 121 123
3 47 241 240
3 202 186 188
3 12 9 187
3 182 181 180
3 221 223 227
3 101 130 128
3 3 8 11
3 96 107 93
3 89 95 93
3 236 237 235
3 59 56 57
3 91 93 94
3 154 157 156
3 41 44 43
3 203 196 197
3 132 135 133
3 11 12 13
3 213 214 212
3 246 244 139
3 226 230 228
3 237 238 235
3 104 103 101
3 134 136 144
3 214 215 216
3 109 94 107
3 18 19 20
3 89 93 91
3 154 155 164
3 133 136 134
3 103 96 101
3 114 115 116
3 25 26 28
3 206 198 204
3 189 192 196
3 31 32 30
3 226 224 244
3 205 209 208
3 105 106 120
3 1 3 2
3 131 144 145
3 151 149 150
3 174 173 171
3 96 95 101
3 242 244 53
3 136 133 135
3 12 187 186
3 107 94 93
3 63 61 58
3 0 1 2
3 98 97 86
3 199 196 203
3 229 19 17
3 192 194 195
3 218 217 220
3 107 96 105
3 41 40 35
3 182 180 176
3 45 43 46
3 72 247 139
3 220 221 14
3 116 115 117

POINT_DATA 252
COLOR_SCALARS GocadColor 4
1 0.447059 0.337255 1
1 0.447059 0.337255 1
1 0.447059 0.337255 1
1 0.447059 0.337255 1
1 0.447059 0.337255 1
1 0.447059 0.337255 1
1 0.447059 0.337255 1
1 0.447059 0.337255 1
1 0.447059 0.337255 1
1 0.447059 0.337255 1
1 0.447059 0.337255 1
1 0.447059 0.337255 1
1 0.447059 0.337255 1
1 0.447059 0.337255 1
1 0.447059 0.337255 1
1 0.447059 0.337255 1
1 0.447059 0.337255 1
1 0.447059 0.337255 1
1 0.447059 0.337255 1
1 0.447059 0.337255 1
1 0.447059 0.337255 1
1 0.447059 0.337255 1
1 0.447059 0.337255 1
1 0.447059 0.337255 1
1 0.447059 0.337255 1
1 0.447059 0.337255 1
1 0.447059 0.337255 1
1 0.447059 0.337255 1
1 0.447059 0.337255 1
1 0.447059 0.337255 1
1 0.447059 0.337255 1
1 0.447059 0.337255 1
1 0.447059 0.337255 1
1 0.447059 0.337255 1
1 0.447059 0.337255 1
1 0.447059 0.337255 1
1 0.447059 0.337255 1
1 0.447059 0.337255 1
1 0.447059 0.337255 1
1 0.447059 0.337255 1
1 0.447059 0.337255 1
1 0.447059 0.337255 1
1 0.447059 0.337255 1
1 0.447059 0.337255 1
1 0.447059 0.337255 1
1 0.447059 0.337255 1
1 0.447059 0.337255 1
1 0.447059 0.337255 1
1 0.447059 0.337255 1
1 0.447059 0.337255 1
1 0.447059 0.337255 1
1 0.447059 0.337255 1
1 0.447059 0.337255 1
1 0.447059 0.337255 1
1 0.447059 0.337255 1
1 0.447059 0.337255 1
1 0.447059 0.337255 1
1 0.447059 0.337255 1
1 0.447059 0.337255 1
1 0.447059 0.337255 1
1 0.447059 0.337255 1
1 0.447059 0.337255 1
1 0.447059 0.337255 1
1 0.447059 0.337255 1
1 0.447059 0.337255 1
1 0.447059 0.337255 1
1 0.447059 0.337255 1
1 0.447059 0.337255 1
1 0.447059 0.337255 1
1 0.447059 0.337255 1
1 0.447059 0.337255 1
1 0.447059 0.337255 1
1 0.447059 0.337255 1
1 0.447059 0.337255 1
1 0.447059 0.337255 1
1 0.447059 0.337255 1
1 0.447059 0.337255 1
1 0.447059 0.337255 1
1 0.447059 0.337255 1
1 0.447059 0.337255 1
1 0.447059 0.337255 1
1 0.447059 0.337255 1
1 0.447059 0.337255 1
1 0.447059 0.337255 1
1 0.447059 0.337255 1
1 0.447059 0.337255 1
1 0.447059 0.337255 1
1 0.447059 0.337255 1
1 0.447059 0.337255 1
1 0.447059 0.337255 1
1 0.447059 0.337255 1
1 0.447059 0.337255 1
1 0.447059 0.337255 1
1 0.447059 0.337255 1
1 0.447059 0.337255 1
1 0.447059 0.337255 1
1 0.447059 0.337255 1
1 0.447059 0.337255 1
1 0.447059 0.337255 1
1 0.447059 0.337255 1
1 0.447059 0.337255 1
1 0.447059 0.337255 1
1 0.447059 0.337255 1
1 0.447059 0.337255 1
1 0.447059 0.337255 1
1 0.447059 0.337255 1
1 0.447059 0.337255 1
1 0.447059 0.337255 1
1 0.447059 0.337255 1
1 0.447059 0.337255 1
1 0.447059 0.337255 1
1 0.447059 0.337255 1
1 0.447059 0.337255 1
1 0.447059 0.337255 1
1 0.447059 0.337255 1
1 0.447059 0.337255 1
1 0.447059 0.337255 1
1 0.447059 0.337255 1
1 0.447059 0.337255 1
1 0.447059 0.337255 1
1 0.447059 0.337255 1
1 0.447059 0.337255 1
1 0.447059 0.337255 1
1 0.447059 0.337255 1
1 0.447059 0.337255 1
1 0.447059 0.337255 1
1 0.447059 0.337255 1
1 0.447059 0.337255 1
1 0.447059 0.337255 1
1 0.447059 0.337255 1
1 0.447059 0.337255 1
1 0.447059 0.337255 1
1 0.447059 0.337255 1
1 0.447059 0.337255 1
1 0.447059 0.337255 1
1 0.447059 0.337255 1
1 0.447059 0.337255 1
1 0.447059 0.337255 1
1 0.447059 0.337255 1
1 0.447059 0.337255 1
1 0.447059 0.337255 1
1 0.447059 0.337255 1
1 0.447059 0.337255 1
1 0.447059 0.337255 1
1 0.447059 0.337255 1
1 0.447059 0.337255 1
1 0.447059 0.337255 1
1 0.447059 0.337255 1
1 0.447059 0.337255 1
1 0.447059 0.337255 1
1 0.447059 0.337255 1
1 0.447059 0.337255 1
1 0.447059 0.337255 1
1 0.447059 0.337255 1
1 0.447059 0.337255 1
1 0.447059 0.337255 1
1 0.447059 0.337255 1
1 0.447059 0.337255 1
1 0.447059 0.337255 1
1 0.447059 0.337255 1
1 0.447059 0.337255 1
1 0.447059 0.337255 1
1 0.447059 0.337255 1
1 0.447059 0.337255 1
1 0.447059 0.337255 1
1 0.447059 0.337255 1
1 0.447059 0.337255 1
1 0.447059 0.337255 1
1 0.447059 0.337255 1
1 0.447059 0.337255 1
1 0.447059 0.337255 1
1 0.447059 0.337255 1
1 0.447059 0.337255 1
1 0.447059 0.337255 1
1 0.447059 0.337255 1
1 0.447059 0.337255 1
1 0.447059 0.337255 1
1 0.447059 0.337255 1
1 0.447059 0.337255 1
1 0.447059 0.337255 1
1 0.447059 0.337255 1
1 0.447059 0.337255 1
1 0.447059 0.337255 1
1 0.447059 0.337255 1
1 0.447059 0.337255 1
1 0.447059 0.337255 1
1 0.447059 0.337255 1
1 0.447059 0.337255 1
1 0.447059 0.337255 1
1 0.447059 0.337255 1
1 0.447059 0.337255 1
1 0.447059 0.337255 1
1 0.447059 0.337255 1
1 0.447059 0.337255 1
1 0.447059 0.337255 1
1 0.447059 0.337255 1
1 0.447059 0.337255 1
1 0.447059 0.337255 1
1 0.447059 0.337255 1
1 0.447059 0.337255 1
1 0.447059 0.337255 1
1 0.447059 0.337255 1
1 0.447059 0.337255 1
1 0.447059 0.337255 1
1 0.447059 0.337255 1
1 0.447059 0.337255 1
1 0.447059 0.337255 1
1 0.447059 0.337255 1
1 0.447059 0.337255 1
1 0.447059 0.337255 1
1 0.447059 0.337255 1
1 0.447059 0.337255 1
1 0.447059 0.337255 1
1 0.447059 0.337255 1
1 0.447059 0.337255 1
1 0.447059 0.337255 1
1 0.447059 0.337255 1
1 0.447059 0.337255 1
1 0.447059 0.337255 1
1 0.447059 0.337255 1
1 0.447059 0.337255 1
1 0.447059 0.337255 1
1 0.447059 0.337255 1
1 0.447059 0.337255 1
1 0.447059 0.337255 1
1 0.447059 0.337255 1
1 0.447059 0.337255 1
1 0.447059 0.337255 1
1 0.447059 0.337255 1
1 0.447059 0.337255 1
1 0.447059 0.337255 1
1 0.447059 0.337255 1
1 0.447059 0.337255 1
1 0.447059 0.337255 1
1 0.447059 0.337255 1
1 0.447059 0.337255 1
1 0.447059 0.337255 1
1 0.447059 0.337255 1
1 0.447059 0.337255 1
1 0.447059 0.337255 1
1 0.447059 0.337255 1
1 0.447059 0.337255 1
1 0.447059 0.337255 1
1 0.447059 0.337255 1
1 0.447059 0.337255 1
1 0.447059 0.337255 1
1 0.447059 0.337255 1
1 0.447059 0.337255 1
1 0.447059 0.337255 1
1 0.447059 0.337255 1
1 0.447059 0.337255 1
1 0.447059 0.337255 1

