# vtk DataFile Version 3.0
Gocad TSurf to VTK
ASCII
DATASET POLYDATA
POINTS 952 float
21591400.000 4564430.000 195.000
21591250.000 4564280.000 232.500
21591400.000 4564085.000 187.500
21591275.000 4564190.000 223.750
21591625.000 4564220.000 22.500
21591200.000 4564460.000 250.000
21591175.000 4564375.000 267.500
21591425.000 4564605.000 171.250
21591675.000 4564473.750 -13.750
21591275.000 4564627.500 212.500
21591312.500 4564711.250 193.750
21591125.000 4564748.750 203.125
21590825.000 4564715.000 317.500
21590750.000 4564910.000 370.000
21590937.500 4564242.500 311.875
21590775.000 4564357.500 337.500
21591075.000 4564035.000 337.500
21590650.000 4564195.000 410.000
21590462.500 4563951.250 518.750
21590408.117 4564326.926 525.833
21590408.188 4564321.949 526.069
21590405.453 4564506.551 517.345
21590404.109 4564597.344 513.055
21590404.578 4564601.238 512.872
21590421.563 4564665.500 509.872
21590421.750 4564676.137 510.649
21590425.000 4564687.500 510.000
21590425.000 4564687.500 510.000
21590450.000 4564775.000 505.000
21590421.750 4564676.137 510.649
21590475.000 4564862.500 500.000
21590500.000 4564950.000 495.000
21590525.000 4565037.500 490.000
21590712.500 4565007.500 396.250
21590550.000 4565125.000 485.000
21591275.000 4564901.250 161.875
21591425.000 4565053.750 120.625
21591387.500 4564878.750 156.250
21590600.000 4565300.000 475.000
21590575.000 4565212.500 480.000
21591537.500 4565201.250 106.875
21591475.000 4564955.000 123.750
21591300.000 4565322.500 215.000
21591875.000 4565532.500 81.250
21590612.500 4565375.000 485.625
21590625.000 4565450.000 496.250
21590612.500 4565375.000 485.625
21590637.500 4565525.000 506.875
21591000.000 4565611.250 387.500
21591425.000 4565928.750 333.125
21590650.000 4565600.000 517.500
21590662.500 4565675.000 528.125
21590675.000 4565750.000 538.750
21590687.500 4565825.000 549.375
21590698.914 4565893.492 559.078
21590701.328 4565898.719 559.235
21590702.195 4565900.086 559.313
21590732.813 4565949.395 562.033
21590761.906 4565996.242 564.617
21590766.477 4566003.832 565.014
21590782.266 4566027.750 565.827
21591050.000 4566157.500 511.250
21592500.000 4565918.750 19.375
21590815.750 4566079.727 567.471
21590842.891 4566117.805 569.067
21590904.742 4566213.527 572.121
21590920.156 4566236.707 572.927
21592600.000 4565950.000 0.000
21590955.680 4566278.863 575.513
21590965.797 4566310.488 574.976
21590973.313 4566321.266 575.404
21592225.000 4566257.500 187.500
21592500.000 4566135.000 20.000
21591850.000 4566310.000 281.250
21592125.000 4566405.000 245.000
21590970.086 4566323.895 574.749
21590973.984 4566336.098 574.542
21591300.000 4566385.000 470.625
21591550.000 4566625.000 397.500
21590991.242 4566444.934 570.062
21590994.516 4566465.539 569.214
21590997.906 4566486.957 568.333
21591007.523 4566537.371 566.501
21591012.734 4566561.930 565.688
21591525.000 4566722.500 408.750
21591650.000 4566705.000 377.500
21591014.297 4566569.289 565.444
21591029.930 4566783.258 553.896
21591033.352 4566825.402 551.672
21591387.500 4566943.750 476.250
21591537.500 4566932.500 382.500
21591046.305 4566850.988 551.953
21591047.477 4566887.813 549.738
21591090.031 4566947.055 552.269
21591094.977 4566953.941 552.564
21591253.352 4567052.648 534.644
21591275.789 4567066.633 532.105
21591525.000 4567187.500 358.750
21591264.508 4567157.445 528.069
21591261.219 4567181.168 527.041
21591260.391 4567187.184 526.781
21591487.500 4567221.250 378.125
21591750.000 4567232.500 237.500
21591257.031 4567211.371 525.733
21591253.227 4567238.820 524.545
21591450.000 4567255.000 397.500
21591252.914 4567241.090 524.447
21591249.180 4567268.031 523.280
21591250.000 4567270.000 522.500
21591262.500 4567300.000 510.625
21591287.500 4567360.000 486.875
21591262.500 4567300.000 510.625
21591275.000 4567330.000 498.750
21591300.000 4567390.000 475.000
21591950.000 4567382.500 127.500
21592000.000 4567420.000 100.000
21591987.500 4567381.250 101.250
21591900.000 4567497.500 155.000
21592012.500 4567465.000 87.500
21591337.500 4567432.500 455.625
21591800.000 4567575.000 210.000
21591337.500 4567432.500 455.625
21591375.000 4567475.000 436.250
21591412.500 4567517.500 416.875
21591450.000 4567560.000 397.500
21591487.500 4567602.500 378.125
21591700.000 4567652.500 265.000
21592075.000 4567690.000 25.000
21591562.500 4567687.500 339.375
21591600.000 4567730.000 320.000
21591525.000 4567645.000 358.750
21591812.500 4567836.250 318.125
21591812.500 4567836.250 318.125
21592025.000 4567942.500 316.250
21592400.000 4567980.000 76.250
21592237.500 4568048.750 314.375
21592412.500 4567665.000 -2.500
21592137.500 4567648.750 15.000
21592425.000 4567897.500 -23.125
21592600.000 4567830.000 -15.000
21592550.000 4567995.000 23.750
21592700.000 4568180.000 152.500
21592775.000 4568010.000 53.750
21592950.000 4567950.000 112.500
21592675.000 4568092.500 70.625
21592862.500 4568105.000 95.625
21592800.000 4568190.000 117.500
21592925.000 4568287.500 164.375
21592950.000 4568200.000 137.500
21593100.000 4568220.000 195.000
21593250.000 4568230.000 222.500
21593037.500 4568295.000 179.375
21593150.000 4568310.000 222.500
21593125.000 4568390.000 221.250
21593200.000 4568400.000 250.000
21593050.000 4568385.000 211.250
21593212.500 4568485.000 263.125
21593087.500 4568473.750 306.875
21593275.000 4568405.000 263.750
21593262.500 4568317.500 243.125
21593300.000 4568580.000 305.000
21593650.000 4568490.000 167.500
21593400.000 4568250.000 222.500
21593587.500 4568727.500 238.125
21594025.000 4568550.000 8.750
21593325.000 4568648.750 321.250
21593350.000 4568717.500 337.500
21593325.000 4568648.750 321.250
21593575.000 4568785.000 266.250
21593375.000 4568786.250 353.750
21593850.000 4568780.000 150.625
21593525.000 4569015.000 378.750
21593507.992 4568999.480 380.026
21593650.000 4569107.500 326.875
21594400.000 4568995.000 -213.750
21593523.375 4569022.484 382.410
21593563.125 4569120.531 389.499
21593520.906 4569018.789 382.028
21593516.703 4569012.512 381.377
21595100.000 4569550.000 -475.000
21595050.000 4569475.000 -469.375
21593576.055 4569149.965 391.745
21593577.375 4569156.309 392.055
21594750.000 4569555.000 -258.750
21595100.000 4569606.250 -459.375
21593587.305 4569203.816 394.377
21593594.297 4569237.309 396.014
21593597.734 4569252.531 396.601
21593609.016 4569302.527 398.530
21593620.555 4569353.664 400.504
21594225.000 4569562.500 65.625
21595100.000 4569943.750 -365.625
21593621.367 4569357.266 400.642
21593632.586 4569406.992 402.561
21593639.172 4569436.168 403.687
21593650.000 4569460.000 401.250
21593675.000 4569515.000 395.625
21593700.000 4569570.000 390.000
21595100.000 4570000.000 -350.000
21594950.000 4570011.250 -248.750
21595112.500 4570072.500 -363.750
21593725.000 4569635.000 398.750
21594800.000 4570022.500 -147.500
21593725.000 4569635.000 398.750
21593750.000 4569700.000 407.500
21593775.000 4569765.000 416.250
21593795.531 4569818.379 423.436
21593803.617 4569830.695 422.928
21593795.531 4569818.379 423.436
21593804.328 4569831.781 422.883
21594350.000 4570056.250 156.250
21593851.117 4569903.020 419.947
21595187.500 4570507.500 -446.250
21595200.000 4570580.000 -460.000
21593970.430 4570084.719 412.458
21595550.000 4570562.500 -652.500
21595900.000 4570545.000 -845.000
21596700.000 4571100.000 -1365.000
21596687.500 4571026.250 -1348.125
21596525.000 4571097.500 -1256.875
21596675.000 4571167.500 -1355.000
21595212.500 4570642.500 -465.000
21595037.500 4570557.500 -345.000
21596350.000 4571095.000 -1148.750
21596650.000 4571235.000 -1345.000
21595650.000 4571085.000 -716.250
21595300.000 4571080.000 -500.000
21596575.000 4571437.500 -1315.000
21596600.000 4571370.000 -1325.000
21596550.000 4571505.000 -1305.000
21596525.000 4571572.500 -1295.000
21596500.000 4571640.000 -1285.000
21596012.500 4571587.500 -1159.375
21596437.500 4571678.750 -1316.250
21595287.500 4571132.500 -556.250
21595687.500 4571552.500 -1075.625
21594750.000 4571025.000 -332.500
21594337.500 4570983.750 -206.875
21593973.102 4570453.754 391.840
21593933.406 4570463.477 390.400
21593998.078 4570447.637 392.746
21593992.453 4570412.801 394.571
21594225.000 4570445.000 230.000
21593990.281 4570384.516 396.107
21594550.000 4570490.000 0.000
21593983.523 4570296.398 400.892
21593985.820 4570326.328 399.267
21593981.945 4570275.887 402.006
21593979.258 4570240.852 403.909
21593976.547 4570205.477 405.829
21593973.805 4570169.770 407.768
21593972.766 4570156.176 408.506
21593969.891 4570118.723 410.540
21593969.703 4570116.273 410.673
21593988.070 4570355.695 397.672
21593937.500 4570471.250 381.875
21593927.188 4570465.887 390.124
21593975.000 4570542.500 303.750
21594162.500 4570898.750 -86.875
21593825.000 4570516.250 375.625
21593907.914 4570473.363 389.271
21593800.000 4570555.000 347.500
21593775.000 4570593.750 319.375
21593825.000 4570516.250 375.625
21593834.227 4570501.945 386.007
21593834.227 4570501.945 386.007
21593750.000 4570632.500 291.250
21593725.000 4570671.250 263.125
21593700.000 4570710.000 235.000
21594087.500 4570955.000 -116.250
21593862.500 4570925.000 -18.750
21593600.000 4570745.000 232.500
21594300.000 4571225.000 -320.000
21595000.000 4571495.000 -831.250
21594400.000 4571480.000 -475.000
21594500.000 4571482.500 -534.375
21593300.000 4570850.000 225.000
21593400.000 4570815.000 227.500
21593350.000 4570832.500 226.250
21594700.000 4571487.500 -653.125
21594700.000 4571670.000 -640.000
21594762.500 4571648.750 -678.750
21594862.500 4571705.000 -751.875
21594887.500 4571606.250 -756.250
21595012.500 4571563.750 -833.750
21595350.000 4571810.000 -1087.500
21595187.500 4571775.000 -975.625
21595512.500 4571845.000 -1199.375
21595075.000 4571542.500 -872.500
21595675.000 4571880.000 -1311.250
21595100.000 4571497.500 -890.625
21595137.500 4571521.250 -911.250
21595200.000 4571500.000 -950.000
21595837.500 4571915.000 -1423.125
21596000.000 4571950.000 -1535.000
21596062.500 4571911.250 -1503.750
21596125.000 4571872.500 -1472.500
21596187.500 4571833.750 -1441.250
[...]
POINT_DATA 952
COLOR_SCALARS GocadColor 4
0 1 0.48333 1
0 1 0.48333 1
0 1 0.48333 1
0 1 0.48333 1
0 1 0.48333 1
0 1 0.48333 1
0 1 0.48333 1
0 1 0.48333 1
0 1 0.48333 1
0 1 0.48333 1
0 1 0.48333 1
0 1 0.48333 1
0 1 0.48333 1
0 1 0.48333 1
0 1 0.48333 1
0 1 0.48333 1
0 1 0.48333 1
0 1 0.48333 1
0 1 0.48333 1
0 1 0.48333 1
0 1 0.48333 1
0 1 0.48333 1
0 1 0.48333 1
0 1 0.48333 1
0 1 0.48333 1
0 1 0.48333 1
0 1 0.48333 1
0 1 0.48333 1
0 1 0.48333 1
0 1 0.48333 1
0 1 0.48333 1
0 1 0.48333 1
0 1 0.48333 1
0 1 0.48333 1
0 1 0.48333 1
0 1 0.48333 1
0 1 0.48333 1
0 1 0.48333 1
0 1 0.48333 1
0 1 0.48333 1
0 1 0.48333 1
0 1 0.48333 1
0 1 0.48333 1
0 1 0.48333 1
0 1 0.48333 1
0 1 0.48333 1
0 1 0.48333 1
0 1 0.48333 1
0 1 0.48333 1
0 1 0.48333 1
0 1 0.48333 1
0 1 0.48333 1
0 1 0.48333 1
0 1 0.48333 1
0 1 0.48333 1
0 1 0.48333 1
0 1 0.48333 1
0 1 0.48333 1
0 1 0.48333 1
0 1 0.48333 1
0 1 0.48333 1
0 1 0.48333 1
0 1 0.48333 1
0 1 0.48333 1
0 1 0.48333 1
0 1 0.48333 1
0 1 0.48333 1
0 1 0.48333 1
0 1 0.48333 1
0 1 0.48333 1
0 1 0.48333 1
0 1 0.48333 1
0 1 0.48333 1
0 1 0.48333 1
0 1 0.48333 1
0 1 0.48333 1
0 1 0.48333 1
0 1 0.48333 1
0 1 0.48333 1
0 1 0.48333 1
0 1 0.48333 1
0 1 0.48333 1
0 1 0.48333 1
0 1 0.48333 1
0 1 0.48333 1
0 1 0.48333 1
0 1 0.48333 1
0 1 0.48333 1
0 1 0.48333 1
0 1 0.48333 1
0 1 0.48333 1
0 1 0.48333 1
0 1 0.48333 1
0 1 0.48333 1
0 1 0.48333 1
0 1 0.48333 1
0 1 0.48333 1
0 1 0.48333 1
0 1 0.48333 1
0 1 0.48333 1
0 1 0.48333 1
0 1 0.48333 1
0 1 0.48333 1
0 1 0.48333 1
0 1 0.48333 1
0 1 0.48333 1
0 1 0.48333 1
0 1 0.48333 1
0 1 0.48333 1
0 1 0.48333 1
0 1 0.48333 1
0 1 0.48333 1
0 1 0.48333 1
0 1 0.48333 1
0 1 0.48333 1
0 1 0.48333 1
0 1 0.48333 1
0 1 0.48333 1
0 1 0.48333 1
0 1 0.48333 1
0 1 0.48333 1
0 1 0.48333 1
0 1 0.48333 1
0 1 0.48333 1
0 1 0.48333 1
0 1 0.48333 1
0 1 0.48333 1
0 1 0.48333 1
0 1 0.48333 1
0 1 0.48333 1
0 1 0.48333 1
0 1 0.48333 1
0 1 0.48333 1
0 1 0.48333 1
0 1 0.48333 1
0 1 0.48333 1
0 1 0.48333 1
0 1 0.48333 1
0 1 0.48333 1
0 1 0.48333 1
0 1 0.48333 1
0 1 0.48333 1
0 1 0.48333 1
0 1 0.48333 1
0 1 0.48333 1
0 1 0.48333 1
0 1 0.48333 1
0 1 0.48333 1
0 1 0.48333 1
0 1 0.48333 1
0 1 0.48333 1
0 1 0.48333 1
0 1 0.48333 1
0 1 0.48333 1
0 1 0.48333 1
0 1 0.48333 1
0 1 0.48333 1
0 1 0.48333 1
0 1 0.48333 1
0 1 0.48333 1
0 1 0.48333 1
0 1 0.48333 1
0 1 0.48333 1
0 1 0.48333 1
0 1 0.48333 1
0 1 0.48333 1
0 1 0.48333 1
0 1 0.48333 1
0 1 0.48333 1
0 1 0.48333 1
0 1 0.48333 1
0 1 0.48333 1
0 1 0.48333 1
0 1 0.48333 1
0 1 0.48333 1
0 1 0.48333 1
0 1 0.48333 1
0 1 0.48333 1
0 1 0.48333 1
0 1 0.48333 1
0 1 0.48333 1
0 1 0.48333 1
0 1 0.48333 1
0 1 0.48333 1
0 1 0.48333 1
0 1 0.48333 1
0 1 0.48333 1
0 1 0.48333 1
0 1 0.48333 1
0 1 0.48333 1
0 1 0.48333 1
0 1 0.48333 1
0 1 0.48333 1
0 1 0.48333 1
0 1 0.48333 1
0 1 0.48333 1
0 1 0.48333 1
0 1 0.48333 1
0 1 0.48333 1
0 1 0.48333 1
0 1 0.48333 1
0 1 0.48333 1
0 1 0.48333 1
0 1 0.48333 1
0 1 0.48333 1
0 1 0.48333 1
0 1 0.48333 1
0 1 0.48333 1
0 1 0.48333 1
0 1 0.48333 1
0 1 0.48333 1
0 1 0.48333 1
0 1 0.48333 1
0 1 0.48333 1
0 1 0.48333 1
0 1 0.48333 1
0 1 0.48333 1
0 1 0.48333 1
0 1 0.48333 1
0 1 0.48333 1
0 1 0.48333 1
0 1 0.48333 1
0 1 0.48333 1
0 1 0.48333 1
0 1 0.48333 1
0 1 0.48333 1
0 1 0.48333 1
0 1 0.48333 1
0 1 0.48333 1
0 1 0.48333 1
0 1 0.48333 1
0 1 0.48333 1
0 1 0.48333 1
0 1 0.48333 1
0 1 0.48333 1
0 1 0.48333 1
0 1 0.48333 1
0 1 0.48333 1
0 1 0.48333 1
0 1 0.48333 1
0 1 0.48333 1
0 1 0.48333 1
0 1 0.48333 1
0 1 0.48333 1
0 1 0.48333 1
0 1 0.48333 1
0 1 0.48333 1
0 1 0.48333 1
0 1 0.48333 1
0 1 0.48333 1
0 1 0.48333 1
0 1 0.48333 1
0 1 0.48333 1
0 1 0.48333 1
0 1 0.48333 1
0 1 0.48333 1
0 1 0.48333 1
0 1 0.48333 1
0 1 0.48333 1
0 1 0.48333 1
0 1 0.48333 1
0 1 0.48333 1
0 1 0.48333 1
0 1 0.48333 1
0 1 0.48333 1
0 1 0.48333 1
0 1 0.48333 1
0 1 0.48333 1
0 1 0.48333 1
0 1 0.48333 1
0 1 0.48333 1
0 1 0.48333 1
0 1 0.48333 1
0 1 0.48333 1
0 1 0.48333 1
0 1 0.48333 1
0 1 0.48333 1
0 1 0.48333 1
0 1 0.48333 1
0 1 0.48333 1
0 1 0.48333 1
0 1 0.48333 1
0 1 0.48333 1
0 1 0.48333 1
0 1 0.48333 1
0 1 0.48333 1
0 1 0.48333 1
0 1 0.48333 1
0 1 0.48333 1
0 1 0.48333 1
0 1 0.48333 1
0 1 0.48333 1
0 1 0.48333 1
0 1 0.48333 1
0 1 0.48333 1
0 1 0.48333 1
0 1 0.48333 1
0 1 0.48333 1
0 1 0.48333 1
0 1 0.48333 1
0 1 0.48333 1
0 1 0.48333 1
0 1 0.48333 1
0 1 0.48333 1
0 1 0.48333 1
0 1 0.48333 1
0 1 0.48333 1
0 1 0.48333 1
0 1 0.48333 1
0 1 0.48333 1
0 1 0.48333 1
0 1 0.48333 1
0 1 0.48333 1
0 1 0.48333 1
0 1 0.48333 1
0 1 0.48333 1
0 1 0.48333 1
0 1 0.48333 1
0 1 0.48333 1
0 1 0.48333 1
0 1 0.48333 1
0 1 0.48333 1
0 1 0.48333 1
0 1 0.48333 1
0 1 0.48333 1
0 1 0.48333 1
0 1 0.48333 1
0 1 0.48333 1
0 1 0.48333 1
0 1 0.48333 1
0 1 0.48333 1
0 1 0.48333 1
0 1 0.48333 1
0 1 0.48333 1
0 1 0.48333 1
0 1 0.48333 1
0 1 0.48333 1
0 1 0.48333 1
0 1 0.48333 1
0 1 0.48333 1
0 1 0.48333 1
0 1 0.48333 1
0 1 0.48333 1
0 1 0.48333 1
0 1 0.48333 1
0 1 0.48333 1
0 1 0.48333 1
0 1 0.48333 1
0 1 0.48333 1
0 1 0.48333 1
0 1 0.48333 1
0 1 0.48333 1
0 1 0.48333 1
0 1 0.48333 1
0 1 0.48333 1
0 1 0.48333 1
0 1 0.48333 1
0 1 0.48333 1
0 1 0.48333 1
0 1 0.48333 1
0 1 0.48333 1
0 1 0.48333 1
0 1 0.48333 1
0 1 0.48333 1
0 1 0.48333 1
0 1 0.48333 1
0 1 0.48333 1
0 1 0.48333 1
0 1 0.48333 1
0 1 0.48333 1
0 1 0.48333 1
0 1 0.48333 1
0 1 0.48333 1
0 1 0.48333 1
0 1 0.48333 1
0 1 0.48333 1
0 1 0.48333 1
0 1 0.48333 1
0 1 0.48333 1
0 1 0.48333 1
0 1 0.48333 1
0 1 0.48333 1
0 1 0.48333 1
0 1 0.48333 1
0 1 0.48333 1
0 1 0.48333 1
0 1 0.48333 1
0 1 0.48333 1
0 1 0.48333 1
0 1 0.48333 1
0 1 0.48333 1
0 1 0.48333 1
0 1 0.48333 1
0 1 0.48333 1
0 1 0.48333 1
0 1 0.48333 1
0 1 0.48333 1
0 1 0.48333 1
0 1 0.48333 1
0 1 0.48333 1
0 1 0.48333 1
0 1 0.48333 1
0 1 0.48333 1
0 1 0.48333 1
0 1 0.48333 1
0 1 0.48333 1
0 1 0.48333 1
0 1 0.48333 1
0 1 0.48333 1
0 1 0.48333 1
0 1 0.48333 1
0 1 0.48333 1
0 1 0.48333 1
0 1 0.48333 1
0 1 0.48333 1
0 1 0.48333 1
0 1 0.48333 1
0 1 0.48333 1
0 1 0.48333 1
0 1 0.48333 1
0 1 0.48333 1
0 1 0.48333 1
0 1 0.48333 1
0 1 0.48333 1
0 1 0.48333 1
0 1 0.48333 1
0 1 0.48333 1
0 1 0.48333 1
0 1 0.48333 1
0 1 0.48333 1
0 1 0.48333 1
0 1 0.48333 1
0 1 0.48333 1
0 1 0.48333 1
0 1 0.48333 1
0 1 0.48333 1
0 1 0.48333 1
0 1 0.48333 1
0 1 0.48333 1
0 1 0.48333 1
0 1 0.48333 1
0 1 0.48333 1
0 1 0.48333 1
0 1 0.48333 1
0 1 0.48333 1
0 1 0.48333 1
0 1 0.48333 1
0 1 0.48333 1
0 1 0.48333 1
0 1 0.48333 1
0 1 0.48333 1
0 1 0.48333 1
0 1 0.48333 1
0 1 0.48333 1
0 1 0.48333 1
0 1 0.48333 1
0 1 0.48333 1
0 1 0.48333 1
0 1 0.48333 1
0 1 0.48333 1
0 1 0.48333 1
0 1 0.48333 1
0 1 0.48333 1
0 1 0.48333 1
0 1 0.48333 1
0 1 0.48333 1
0 1 0.48333 1
0 1 0.48333 1
0 1 0.48333 1
0 1 0.48333 1
0 1 0.48333 1
0 1 0.48333 1
0 1 0.48333 1
0 1 0.48333 1
0 1 0.48333 1
0 1 0.48333 1
0 1 0.48333 1
0 1 0.48333 1
0 1 0.48333 1
0 1 0.48333 1
0 1 0.48333 1
0 1 0.48333 1
0 1 0.48333 1
0 1 0.48333 1
0 1 0.48333 1
0 1 0.48333 1
0 1 0.48333 1
0 1 0.48333 1
0 1 0.48333 1
0 1 0.48333 1
0 1 0.48333 1
0 1 0.48333 1
0 1 0.48333 1
0 1 0.48333 1
0 1 0.48333 1
0 1 0.48333 1
0 1 0.48333 1
0 1 0.48333 1
0 1 0.48333 1
0 1 0.48333 1
0 1 0.48333 1
0 1 0.48333 1
0 1 0.48333 1
0 1 0.48333 1
0 1 0.48333 1
0 1 0.48333 1
0 1 0.48333 1
0 1 0.48333 1
0 1 0.48333 1
0 1 0.48333 1
0 1 0.48333 1
0 1 0.48333 1
0 1 0.48333 1
0 1 0.48333 1
0 1 0.48333 1
0 1 0.48333 1
0 1 0.48333 1
0 1 0.48333 1
0 1 0.48333 1
0 1 0.48333 1
0 1 0.48333 1
0 1 0.48333 1
0 1 0.48333 1
0 1 0.48333 1
0 1 0.48333 1
0 1 0.48333 1
0 1 0.48333 1
0 1 0.48333 1
0 1 0.48333 1
0 1 0.48333 1
0 1 0.48333 1
0 1 0.48333 1
0 1 0.48333 1
0 1 0.48333 1
0 1 0.48333 1
0 1 0.48333 1
0 1 0.48333 1
0 1 0.48333 1
0 1 0.48333 1
0 1 0.48333 1
0 1 0.48333 1
0 1 0.48333 1
0 1 0.48333 1
0 1 0.48333 1
0 1 0.48333 1
0 1 0.48333 1
0 1 0.48333 1
0 1 0.48333 1
0 1 0.48333 1
0 1 0.48333 1
0 1 0.48333 1
0 1 0.48333 1
0 1 0.48333 1
0 1 0.48333 1
0 1 0.48333 1
0 1 0.48333 1
0 1 0.48333 1
0 1 0.48333 1
0 1 0.48333 1
0 1 0.48333 1
0 1 0.48333 1
0 1 0.48333 1
0 1 0.48333 1
0 1 0.48333 1
0 1 0.48333 1
0 1 0.48333 1
0 1 0.48333 1
0 1 0.48333 1
0 1 0.48333 1
0 1 0.48333 1
0 1 0.48333 1
0 1 0.48333 1
0 1 0.48333 1
0 1 0.48333 1
0 1 0.48333 1
0 1 0.48333 1
0 1 0.48333 1
0 1 0.48333 1
0 1 0.48333 1
0 1 0.48333 1
0 1 0.48333 1
0 1 0.48333 1
0 1 0.48333 1
0 1 0.48333 1
0 1 0.48333 1
0 1 0.48333 1
0 1 0.48333 1
0 1 0.48333 1
0 1 0.48333 1
0 1 0.48333 1
0 1 0.48333 1
0 1 0.48333 1
0 1 0.48333 1
0 1 0.48333 1
0 1 0.48333 1
0 1 0.48333 1
0 1 0.48333 1
0 1 0.48333 1
0 1 0.48333 1
0 1 0.48333 1
0 1 0.48333 1
0 1 0.48333 1
0 1 0.48333 1
0 1 0.48333 1
0 1 0.48333 1
0 1 0.48333 1
0 1 0.48333 1
0 1 0.48333 1
0 1 0.48333 1
0 1 0.48333 1
0 1 0.48333 1
0 1 0.48333 1
0 1 0.48333 1
0 1 0.48333 1
0 1 0.48333 1
0 1 0.48333 1
0 1 0.48333 1
0 1 0.48333 1
0 1 0.48333 1
0 1 0.48333 1
0 1 0.48333 1
0 1 0.48333 1
0 1 0.48333 1
0 1 0.48333 1
0 1 0.48333 1
0 1 0.48333 1
0 1 0.48333 1
0 1 0.48333 1
0 1 0.48333 1
0 1 0.48333 1
0 1 0.48333 1
0 1 0.48333 1
0 1 0.48333 1
0 1 0.48333 1
0 1 0.48333 1
0 1 0.48333 1
0 1 0.48333 1
0 1 0.48333 1
0 1 0.48333 1
0 1 0.48333 1
0 1 0.48333 1
0 1 0.48333 1
0 1 0.48333 1
0 1 0.48333 1
0 1 0.48333 1
0 1 0.48333 1
0 1 0.48333 1
0 1 0.48333 1
0 1 0.48333 1
0 1 0.48333 1
0 1 0.48333 1
0 1 0.48333 1
0 1 0.48333 1
0 1 0.48333 1
0 1 0.48333 1
0 1 0.48333 1
0 1 0.48333 1
0 1 0.48333 1
0 1 0.48333 1
0 1 0.48333 1
0 1 0.48333 1
0 1 0.48333 1
0 1 0.48333 1
0 1 0.48333 1
0 1 0.48333 1
0 1 0.48333 1
0 1 0.48333 1
0 1 0.48333 1
0 1 0.48333 1
0 1 0.48333 1
0 1 0.48333 1
0 1 0.48333 1
0 1 0.48333 1
0 1 0.48333 1
0 1 0.48333 1
0 1 0.48333 1
0 1 0.48333 1
0 1 0.48333 1
0 1 0.48333 1
0 1 0.48333 1
0 1 0.48333 1
0 1 0.48333 1
0 1 0.48333 1
0 1 0.48333 1
0 1 0.48333 1
0 1 0.48333 1
0 1 0.48333 1
0 1 0.48333 1
0 1 0.48333 1
0 1 0.48333 1
0 1 0.48333 1
0 1 0.48333 1
0 1 0.48333 1
0 1 0.48333 1
0 1 0.48333 1
0 1 0.48333 1
0 1 0.48333 1
0 1 0.48333 1
0 1 0.48333 1
0 1 0.48333 1
0 1 0.48333 1
0 1 0.48333 1
0 1 0.48333 1
0 1 0.48333 1
0 1 0.48333 1
0 1 0.48333 1
0 1 0.48333 1
0 1 0.48333 1
0 1 0.48333 1
0 1 0.48333 1
0 1 0.48333 1
0 1 0.48333 1
0 1 0.48333 1
0 1 0.48333 1
0 1 0.48333 1
0 1 0.48333 1
0 1 0.48333 1
0 1 0.48333 1
0 1 0.48333 1
0 1 0.48333 1
0 1 0.48333 1
0 1 0.48333 1
0 1 0.48333 1
0 1 0.48333 1
0 1 0.48333 1
0 1 0.48333 1
0 1 0.48333 1
0 1 0.48333 1
0 1 0.48333 1
0 1 0.48333 1
0 1 0.48333 1
0 1 0.48333 1
0 1 0.48333 1
0 1 0.48333 1
0 1 0.48333 1
0 1 0.48333 1
0 1 0.48333 1
0 1 0.48333 1
0 1 0.48333 1
0 1 0.48333 1
0 1 0.48333 1
0 1 0.48333 1
0 1 0.48333 1
0 1 0.48333 1
0 1 0.48333 1
0 1 0.48333 1
0 1 0.48333 1
0 1 0.48333 1
0 1 0.48333 1
0 1 0.48333 1
0 1 0.48333 1
0 1 0.48333 1
0 1 0.48333 1
0 1 0.48333 1
0 1 0.48333 1
0 1 0.48333 1
0 1 0.48333 1
0 1 0.48333 1
0 1 0.48333 1
0 1 0.48333 1
0 1 0.48333 1
0 1 0.48333 1
0 1 0.48333 1
0 1 0.48333 1
0 1 0.48333 1
0 1 0.48333 1
0 1 0.48333 1
0 1 0.48333 1
0 1 0.48333 1
0 1 0.48333 1
0 1 0.48333 1
0 1 0.48333 1
0 1 0.48333 1
0 1 0.48333 1
0 1 0.48333 1
0 1 0.48333 1
0 1 0.48333 1
0 1 0.48333 1
0 1 0.48333 1
0 1 0.48333 1
0 1 0.48333 1
0 1 0.48333 1
0 1 0.48333 1
0 1 0.48333 1
0 1 0.48333 1
0 1 0.48333 1
0 1 0.48333 1
0 1 0.48333 1
0 1 0.48333 1
0 1 0.48333 1
0 1 0.48333 1
0 1 0.48333 1
0 1 0.48333 1
0 1 0.48333 1
0 1 0.48333 1
0 1 0.48333 1
0 1 0.48333 1
0 1 0.48333 1
0 1 0.48333 1
0 1 0.48333 1
0 1 0.48333 1
0 1 0.48333 1
0 1 0.48333 1
0 1 0.48333 1
0 1 0.48333 1
0 1 0.48333 1
0 1 0.48333 1
0 1 0.48333 1
0 1 0.48333 1
0 1 0.48333 1
0 1 0.48333 1
0 1 0.48333 1
0 1 0.48333 1
0 1 0.48333 1
0 1 0.48333 1
0 1 0.48333 1
0 1 0.48333 1
0 1 0.48333 1
0 1 0.48333 1
0 1 0.48333 1
0 1 0.48333 1
0 1 0.48333 1
0 1 0.48333 1
0 1 0.48333 1
0 1 0.48333 1
0 1 0.48333 1
0 1 0.48333 1
0 1 0.48333 1
0 1 0.48333 1
0 1 0.48333 1
0 1 0.48333 1
0 1 0.48333 1
0 1 0.48333 1
0 1 0.48333 1
0 1 0.48333 1
0 1 0.48333 1
0 1 0.48333 1
0 1 0.48333 1
0 1 0.48333 1
0 1 0.48333 1
0 1 0.48333 1
0 1 0.48333 1
0 1 0.48333 1
0 1 0.48333 1
0 1 0.48333 1
0 1 0.48333 1
0 1 0.48333 1
0 1 0.48333 1
0 1 0.48333 1
0 1 0.48333 1
0 1 0.48333 1
0 1 0.48333 1
0 1 0.48333 1
0 1 0.48333 1
0 1 0.48333 1
0 1 0.48333 1
0 1 0.48333 1
0 1 0.48333 1
0 1 0.48333 1
0 1 0.48333 1
0 1 0.48333 1
0 1 0.48333 1
0 1 0.48333 1
0 1 0.48333 1
0 1 0.48333 1
0 1 0.48333 1
0 1 0.48333 1
0 1 0.48333 1
0 1 0.48333 1
0 1 0.48333 1
0 1 0.48333 1
0 1 0.48333 1
0 1 0.48333 1
0 1 0.48333 1
0 1 0.48333 1
0 1 0.48333 1
0 1 0.48333 1
0 1 0.48333 1
0 1 0.48333 1
0 1 0.48333 1
0 1 0.48333 1
0 1 0.48333 1
0 1 0.48333 1
0 1 0.48333 1
0 1 0.48333 1
0 1 0.48333 1
0 1 0.48333 1
0 1 0.48333 1
0 1 0.48333 1
0 1 0.48333 1
0 1 0.48333 1
0 1 0.48333 1
0 1 0.48333 1
0 1 0.48333 1
0 1 0.48333 1
0 1 0.48333 1
0 1 0.48333 1
0 1 0.48333 1
0 1 0.48333 1
0 1 0.48333 1
0 1 0.48333 1
0 1 0.48333 1
0 1 0.48333 1
0 1 0.48333 1
0 1 0.48333 1
0 1 0.48333 1
0 1 0.48333 1
0 1 0.48333 1
0 1 0.48333 1
0 1 0.48333 1
0 1 0.48333 1
0 1 0.48333 1
0 1 0.48333 1
0 1 0.48333 1
0 1 0.48333 1
0 1 0.48333 1
0 1 0.48333 1
0 1 0.48333 1
0 1 0.48333 1
0 1 0.48333 1
0 1 0.48333 1
0 1 0.48333 1
0 1 0.48333 1
0 1 0.48333 1
0 1 0.48333 1
0 1 0.48333 1
0 1 0.48333 1
0 1 0.48333 1
0 1 0.48333 1
0 1 0.48333 1
0 1 0.48333 1
0 1 0.48333 1
0 1 0.48333 1
0 1 0.48333 1
0 1 0.48333 1
0 1 0.48333 1
0 1 0.48333 1
0 1 0.48333 1
0 1 0.48333 1
0 1 0.48333 1
0 1 0.48333 1
0 1 0.48333 1
0 1 0.48333 1
0 1 0.48333 1
0 1 0.48333 1
0 1 0.48333 1
0 1 0.48333 1
0 1 0.48333 1
0 1 0.48333 1
0 1 0.48333 1
0 1 0.48333 1
0 1 0.48333 1

