# vtk DataFile Version 3.0
Gocad TSurf to VTK
ASCII
DATASET POLYDATA
POINTS 819 float
21573300.000 4583380.000 -1215.000
21573150.000 4583325.000 -1247.500
21573125.000 4583447.500 -1196.250
21572900.000 4583240.000 -1480.000
21573350.000 4583530.000 -1147.500
21573250.000 4583230.000 -1282.500
21573775.000 4583372.500 -1158.750
21573175.000 4583202.500 -1298.750
21573050.000 4583160.000 -1415.000
21573200.000 4583080.000 -1350.000
21573900.000 4583270.000 -1185.000
21573350.000 4583060.000 -1263.750
21573900.000 4583407.500 -1150.000
21573900.000 4583545.000 -1115.000
21574275.000 4583527.500 -1003.750
21574150.000 4583625.000 -1017.500
21574400.000 4583430.000 -990.000
21574000.000 4583245.000 -1097.500
21574650.000 4583632.500 -966.250
21574400.000 4583695.000 -992.500
21574900.000 4583570.000 -940.000
21574850.000 4583495.000 -923.750
21575050.000 4583765.000 -898.750
21575200.000 4583960.000 -857.500
21575500.000 4583780.000 -835.000
21575075.000 4583562.500 -913.750
21575500.000 4583922.500 -820.000
21575875.000 4584027.500 -703.750
21575750.000 4584135.000 -727.500
21576000.000 4583920.000 -680.000
21575900.000 4583825.000 -718.750
21576050.000 4584082.500 -661.250
21576300.000 4584010.000 -515.000
21576100.000 4583882.500 -651.250
21576275.000 4584150.000 -537.500
21576100.000 4584245.000 -642.500
21576500.000 4584217.500 -481.250
21576400.000 4584335.000 -522.500
21576600.000 4584100.000 -440.000
21576550.000 4584017.500 -471.250
21576550.000 4584237.500 -462.500
21576500.000 4584375.000 -485.000
21576600.000 4584250.000 -471.250
21576800.000 4584160.000 -465.000
21576650.000 4584047.500 -458.750
21576750.000 4584295.000 -490.000
21576600.000 4584400.000 -502.500
21576825.000 4584322.500 -532.500
21576700.000 4584430.000 -515.000
21577300.000 4584300.000 -605.000
21576900.000 4584125.000 -516.250
21577200.000 4584427.500 -637.500
21576850.000 4584485.000 -600.000
21577275.000 4584447.500 -640.000
21577250.000 4584595.000 -675.000
21577500.000 4584515.000 -670.000
21577400.000 4584640.000 -695.000
21577600.000 4584390.000 -645.000
21577500.000 4584297.500 -651.250
21577275.000 4584230.000 -621.250
21577400.000 4584205.000 -657.500
21577000.000 4584090.000 -567.500
21577250.000 4584160.000 -637.500
21576800.000 4584025.000 -490.000
21576800.000 4584092.500 -477.500
21576800.000 4583957.500 -502.500
21577100.000 4584055.000 -618.750
21576750.000 4583942.500 -496.250
21576800.000 4583890.000 -515.000
21576700.000 4583995.000 -477.500
21576500.000 4583935.000 -502.500
21576325.000 4583950.000 -527.500
21576350.000 4583890.000 -540.000
21576200.000 4583845.000 -622.500
21575800.000 4583730.000 -757.500
21575525.000 4583720.000 -835.000
21576300.000 4583807.500 -593.750
21575700.000 4583635.000 -796.250
21575550.000 4583660.000 -835.000
21576400.000 4583770.000 -565.000
21576375.000 4583830.000 -552.500
21575600.000 4583540.000 -835.000
21575575.000 4583600.000 -835.000
21576300.000 4583697.500 -601.250
21576400.000 4583730.000 -558.750
21575700.000 4583525.000 -803.750
21575575.000 4583480.000 -845.000
21576200.000 4583625.000 -637.500
21576400.000 4583690.000 -552.500
21575800.000 4583510.000 -772.500
21575550.000 4583420.000 -855.000
21576100.000 4583552.500 -673.750
21576400.000 4583650.000 -546.250
21575900.000 4583495.000 -741.250
21575525.000 4583360.000 -865.000
21576000.000 4583480.000 -710.000
21575500.000 4583300.000 -875.000
21576400.000 4583610.000 -540.000
21576300.000 4583517.500 -572.500
21576550.000 4583725.000 -411.250
21576500.000 4583740.000 -462.500
21576600.000 4583710.000 -360.000
21576450.000 4583592.500 -437.500
21576650.000 4583755.000 -398.750
21576900.000 4583800.000 -335.000
21576675.000 4583660.000 -418.750
21576875.000 4583822.500 -380.000
21576700.000 4583800.000 -437.500
21576875.000 4583822.500 -380.000
21576850.000 4583845.000 -425.000
21576975.000 4583855.000 -418.750
21577050.000 4583910.000 -502.500
21576825.000 4583867.500 -470.000
21576850.000 4583845.000 -425.000
21577125.000 4583965.000 -586.250
21576825.000 4583867.500 -470.000
21577200.000 4584020.000 -670.000
21577225.000 4584090.000 -653.750
21577300.000 4584112.500 -663.750
21576750.000 4583845.000 -476.250
21576450.000 4583755.000 -513.750
21576450.000 4583852.500 -533.750
21576675.000 4583660.000 -418.750
21576450.000 4583520.000 -502.500
21576450.000 4583520.000 -502.500
21576300.000 4583475.000 -515.000
21576225.000 4583380.000 -586.250
21576225.000 4583380.000 -586.250
21576150.000 4583357.500 -592.500
21576200.000 4583425.000 -605.000
21576000.000 4583240.000 -670.000
21576100.000 4583332.500 -637.500
21576000.000 4583300.000 -680.000
21576000.000 4583360.000 -690.000
21576000.000 4583420.000 -700.000
21575850.000 4583325.000 -760.000
21575775.000 4583247.500 -785.000
21575925.000 4583402.500 -735.000
21575550.000 4583267.500 -858.750
21575425.000 4583225.000 -901.250
21575000.000 4583140.000 -925.000
21575600.000 4583235.000 -842.500
21575350.000 4583150.000 -927.500
21575650.000 4583202.500 -826.250
21575700.000 4583170.000 -810.000
21575275.000 4583075.000 -953.750
21575700.000 4582892.500 -715.000
21575475.000 4582840.000 -820.000
21575200.000 4583000.000 -980.000
21575400.000 4582545.000 -760.000
21575250.000 4582510.000 -830.000
21575100.000 4582712.500 -947.500
21575100.000 4582197.500 -805.000
21575025.000 4582180.000 -840.000
21575000.000 4582425.000 -915.000
21574800.000 4581850.000 -850.000
21574900.000 4582137.500 -882.500
21574775.000 4582100.000 -876.250
21574750.000 4582350.000 -902.500
21574725.000 4582600.000 -928.750
21574550.000 4582285.000 -825.000
21574425.000 4582502.500 -812.500
21574675.000 4582067.500 -837.500
21574550.000 4582280.000 -825.000
21574675.000 4582060.000 -837.500
21574800.000 4581840.000 -850.000
21574525.000 4582015.000 -961.250
21574450.000 4582250.000 -907.500
21574600.000 4581780.000 -1015.000
21574425.000 4581982.500 -990.000
21574100.000 4581570.000 -1095.000
21574575.000 4581635.000 -1010.000
21574050.000 4581825.000 -1050.000
21574250.000 4582185.000 -965.000
21573900.000 4581772.500 -1158.750
21574000.000 4582080.000 -1005.000
21573700.000 4581975.000 -1222.500
21573950.000 4582335.000 -960.000
21574075.000 4582387.500 -940.000
21573500.000 4582177.500 -1286.250
21573900.000 4582590.000 -915.000
21573300.000 4582380.000 -1350.000
21573400.000 4582450.000 -1280.000
21573275.000 4582407.500 -1321.250
21573850.000 4582607.500 -953.750
21573500.000 4582520.000 -1210.000
21574000.000 4582657.500 -921.250
21573800.000 4582625.000 -992.500
21574300.000 4582720.000 -800.000
21574300.000 4582755.000 -835.000
21574100.000 4582725.000 -927.500
21574600.000 4582852.500 -951.250
21574500.000 4582855.000 -947.500
21574700.000 4582850.000 -955.000
21574675.000 4582885.000 -941.250
21574650.000 4582920.000 -927.500
21574775.000 4582922.500 -947.500
21575150.000 4583035.000 -966.250
21574850.000 4582995.000 -940.000
21575100.000 4583070.000 -952.500
21575050.000 4583105.000 -938.750
21574925.000 4583067.500 -932.500
21574600.000 4582990.000 -900.000
21574925.000 4583172.500 -912.500
21574625.000 4582955.000 -913.750
21574400.000 4582857.500 -943.750
21574300.000 4582790.000 -870.000
21574300.000 4582825.000 -905.000
21574200.000 4582792.500 -933.750
21574300.000 4582860.000 -940.000
21574525.000 4583035.000 -883.750
21574300.000 4582937.500 -913.750
21574625.000 4583060.000 -893.750
21574650.000 4583130.000 -887.500
21574850.000 4583205.000 -900.000
21575150.000 4583240.000 -902.500
21575300.000 4583340.000 -880.000
21575450.000 4583440.000 -857.500
21574775.000 4583237.500 -887.500
21574700.000 4583270.000 -875.000
21575425.000 4583547.500 -861.250
21574750.000 4583345.000 -891.250
21575250.000 4583555.000 -887.500
21574800.000 4583420.000 -907.500
21574550.000 4583350.000 -932.500
21574625.000 4583310.000 -903.750
21574475.000 4583390.000 -961.250
21574350.000 4583300.000 -912.500
21574375.000 4583365.000 -951.250
21574325.000 4583235.000 -873.750
21574200.000 4583195.000 -922.500
21574300.000 4583170.000 -835.000
21574100.000 4583220.000 -1010.000
21573825.000 4583067.500 -1050.000
21573850.000 4583135.000 -1095.000
21573875.000 4583202.500 -1140.000
21573650.000 4583020.000 -1091.250
21573800.000 4583000.000 -1005.000
21573500.000 4583040.000 -1177.500
21573050.000 4582847.500 -1226.250
21573100.000 4582925.000 -1267.500
21573150.000 4583002.500 -1308.750
21572950.000 4582812.500 -1262.500
21573000.000 4582770.000 -1185.000
21572900.000 4582855.000 -1340.000
21572850.000 4582897.500 -1417.500
21572800.000 4582940.000 -1495.000
21572750.000 4583055.000 -1523.750
21572700.000 4583170.000 -1552.500
21572750.000 4583320.000 -1545.000
21572650.000 4583285.000 -1581.250
21573100.000 4583570.000 -1145.000
21572600.000 4583400.000 -1610.000
21573400.000 4583680.000 -1080.000
21573225.000 4583770.000 -1071.250
21573525.000 4583577.500 -1106.250
21573900.000 4583820.000 -1045.000
21573650.000 4583475.000 -1132.500
21573900.000 4583682.500 -1080.000
21574025.000 4583722.500 -1031.250
21574150.000 4583757.500 -1018.750
21575350.000 4584155.000 -816.250
21575500.000 4584350.000 -775.000
21575500.000 4584065.000 -805.000
21575500.000 4584207.500 -790.000
21575625.000 4584242.500 -751.250
21576150.000 4584407.500 -623.750
21576250.000 4584290.000 -560.000
21576225.000 4584430.000 -582.500
21576200.000 4584570.000 -605.000
21576300.000 4584452.500 -563.750
21576450.000 4584512.500 -507.500
21576400.000 4584650.000 -530.000
21576600.000 4584550.000 -533.750
21576650.000 4584565.000 -540.000
21576600.000 4584700.000 -565.000
21576875.000 4584647.500 -667.500
21577100.000 4584555.000 -670.000
21577000.000 4584682.500 -702.500
21576900.000 4584810.000 -735.000
21577225.000 4584742.500 -710.000
21577200.000 4584890.000 -745.000
21577300.000 4584765.000 -720.000
21576900.000 4585035.000 -715.000
21576800.000 4584990.000 -676.250
21577125.000 4585095.000 -722.500
21576900.000 4585260.000 -695.000
21577225.000 4585132.500 -755.000
21577050.000 4585300.000 -700.000
[...]
POINT_DATA 819
COLOR_SCALARS GocadColor 4
1 0.74902 0.795026 1
1 0.74902 0.795026 1
1 0.74902 0.795026 1
1 0.74902 0.795026 1
1 0.74902 0.795026 1
1 0.74902 0.795026 1
1 0.74902 0.795026 1
1 0.74902 0.795026 1
1 0.74902 0.795026 1
1 0.74902 0.795026 1
1 0.74902 0.795026 1
1 0.74902 0.795026 1
1 0.74902 0.795026 1
1 0.74902 0.795026 1
1 0.74902 0.795026 1
1 0.74902 0.795026 1
1 0.74902 0.795026 1
1 0.74902 0.795026 1
1 0.74902 0.795026 1
1 0.74902 0.795026 1
1 0.74902 0.795026 1
1 0.74902 0.795026 1
1 0.74902 0.795026 1
1 0.74902 0.795026 1
1 0.74902 0.795026 1
1 0.74902 0.795026 1
1 0.74902 0.795026 1
1 0.74902 0.795026 1
1 0.74902 0.795026 1
1 0.74902 0.795026 1
1 0.74902 0.795026 1
1 0.74902 0.795026 1
1 0.74902 0.795026 1
1 0.74902 0.795026 1
1 0.74902 0.795026 1
1 0.74902 0.795026 1
1 0.74902 0.795026 1
1 0.74902 0.795026 1
1 0.74902 0.795026 1
1 0.74902 0.795026 1
1 0.74902 0.795026 1
1 0.74902 0.795026 1
1 0.74902 0.795026 1
1 0.74902 0.795026 1
1 0.74902 0.795026 1
1 0.74902 0.795026 1
1 0.74902 0.795026 1
1 0.74902 0.795026 1
1 0.74902 0.795026 1
1 0.74902 0.795026 1
1 0.74902 0.795026 1
1 0.74902 0.795026 1
1 0.74902 0.795026 1
1 0.74902 0.795026 1
1 0.74902 0.795026 1
1 0.74902 0.795026 1
1 0.74902 0.795026 1
1 0.74902 0.795026 1
1 0.74902 0.795026 1
1 0.74902 0.795026 1
1 0.74902 0.795026 1
1 0.74902 0.795026 1
1 0.74902 0.795026 1
1 0.74902 0.795026 1
1 0.74902 0.795026 1
1 0.74902 0.795026 1
1 0.74902 0.795026 1
1 0.74902 0.795026 1
1 0.74902 0.795026 1
1 0.74902 0.795026 1
1 0.74902 0.795026 1
1 0.74902 0.795026 1
1 0.74902 0.795026 1
1 0.74902 0.795026 1
1 0.74902 0.795026 1
1 0.74902 0.795026 1
1 0.74902 0.795026 1
1 0.74902 0.795026 1
1 0.74902 0.795026 1
1 0.74902 0.795026 1
1 0.74902 0.795026 1
1 0.74902 0.795026 1
1 0.74902 0.795026 1
1 0.74902 0.795026 1
1 0.74902 0.795026 1
1 0.74902 0.795026 1
1 0.74902 0.795026 1
1 0.74902 0.795026 1
1 0.74902 0.795026 1
1 0.74902 0.795026 1
1 0.74902 0.795026 1
1 0.74902 0.795026 1
1 0.74902 0.795026 1
1 0.74902 0.795026 1
1 0.74902 0.795026 1
1 0.74902 0.795026 1
1 0.74902 0.795026 1
1 0.74902 0.795026 1
1 0.74902 0.795026 1
1 0.74902 0.795026 1
1 0.74902 0.795026 1
1 0.74902 0.795026 1
1 0.74902 0.795026 1
1 0.74902 0.795026 1
1 0.74902 0.795026 1
1 0.74902 0.795026 1
1 0.74902 0.795026 1
1 0.74902 0.795026 1
1 0.74902 0.795026 1
1 0.74902 0.795026 1
1 0.74902 0.795026 1
1 0.74902 0.795026 1
1 0.74902 0.795026 1
1 0.74902 0.795026 1
1 0.74902 0.795026 1
1 0.74902 0.795026 1
1 0.74902 0.795026 1
1 0.74902 0.795026 1
1 0.74902 0.795026 1
1 0.74902 0.795026 1
1 0.74902 0.795026 1
1 0.74902 0.795026 1
1 0.74902 0.795026 1
1 0.74902 0.795026 1
1 0.74902 0.795026 1
1 0.74902 0.795026 1
1 0.74902 0.795026 1
1 0.74902 0.795026 1
1 0.74902 0.795026 1
1 0.74902 0.795026 1
1 0.74902 0.795026 1
1 0.74902 0.795026 1
1 0.74902 0.795026 1
1 0.74902 0.795026 1
1 0.74902 0.795026 1
1 0.74902 0.795026 1
1 0.74902 0.795026 1
1 0.74902 0.795026 1
1 0.74902 0.795026 1
1 0.74902 0.795026 1
1 0.74902 0.795026 1
1 0.74902 0.795026 1
1 0.74902 0.795026 1
1 0.74902 0.795026 1
1 0.74902 0.795026 1
1 0.74902 0.795026 1
1 0.74902 0.795026 1
1 0.74902 0.795026 1
1 0.74902 0.795026 1
1 0.74902 0.795026 1
1 0.74902 0.795026 1
1 0.74902 0.795026 1
1 0.74902 0.795026 1
1 0.74902 0.795026 1
1 0.74902 0.795026 1
1 0.74902 0.795026 1
1 0.74902 0.795026 1
1 0.74902 0.795026 1
1 0.74902 0.795026 1
1 0.74902 0.795026 1
1 0.74902 0.795026 1
1 0.74902 0.795026 1
1 0.74902 0.795026 1
1 0.74902 0.795026 1
1 0.74902 0.795026 1
1 0.74902 0.795026 1
1 0.74902 0.795026 1
1 0.74902 0.795026 1
1 0.74902 0.795026 1
1 0.74902 0.795026 1
1 0.74902 0.795026 1
1 0.74902 0.795026 1
1 0.74902 0.795026 1
1 0.74902 0.795026 1
1 0.74902 0.795026 1
1 0.74902 0.795026 1
1 0.74902 0.795026 1
1 0.74902 0.795026 1
1 0.74902 0.795026 1
1 0.74902 0.795026 1
1 0.74902 0.795026 1
1 0.74902 0.795026 1
1 0.74902 0.795026 1
1 0.74902 0.795026 1
1 0.74902 0.795026 1
1 0.74902 0.795026 1
1 0.74902 0.795026 1
1 0.74902 0.795026 1
1 0.74902 0.795026 1
1 0.74902 0.795026 1
1 0.74902 0.795026 1
1 0.74902 0.795026 1
1 0.74902 0.795026 1
1 0.74902 0.795026 1
1 0.74902 0.795026 1
1 0.74902 0.795026 1
1 0.74902 0.795026 1
1 0.74902 0.795026 1
1 0.74902 0.795026 1
1 0.74902 0.795026 1
1 0.74902 0.795026 1
1 0.74902 0.795026 1
1 0.74902 0.795026 1
1 0.74902 0.795026 1
1 0.74902 0.795026 1
1 0.74902 0.795026 1
1 0.74902 0.795026 1
1 0.74902 0.795026 1
1 0.74902 0.795026 1
1 0.74902 0.795026 1
1 0.74902 0.795026 1
1 0.74902 0.795026 1
1 0.74902 0.795026 1
1 0.74902 0.795026 1
1 0.74902 0.795026 1
1 0.74902 0.795026 1
1 0.74902 0.795026 1
1 0.74902 0.795026 1
1 0.74902 0.795026 1
1 0.74902 0.795026 1
1 0.74902 0.795026 1
1 0.74902 0.795026 1
1 0.74902 0.795026 1
1 0.74902 0.795026 1
1 0.74902 0.795026 1
1 0.74902 0.795026 1
1 0.74902 0.795026 1
1 0.74902 0.795026 1
1 0.74902 0.795026 1
1 0.74902 0.795026 1
1 0.74902 0.795026 1
1 0.74902 0.795026 1
1 0.74902 0.795026 1
1 0.74902 0.795026 1
1 0.74902 0.795026 1
1 0.74902 0.795026 1
1 0.74902 0.795026 1
1 0.74902 0.795026 1
1 0.74902 0.795026 1
1 0.74902 0.795026 1
1 0.74902 0.795026 1
1 0.74902 0.795026 1
1 0.74902 0.795026 1
1 0.74902 0.795026 1
1 0.74902 0.795026 1
1 0.74902 0.795026 1
1 0.74902 0.795026 1
1 0.74902 0.795026 1
1 0.74902 0.795026 1
1 0.74902 0.795026 1
1 0.74902 0.795026 1
1 0.74902 0.795026 1
1 0.74902 0.795026 1
1 0.74902 0.795026 1
1 0.74902 0.795026 1
1 0.74902 0.795026 1
1 0.74902 0.795026 1
1 0.74902 0.795026 1
1 0.74902 0.795026 1
1 0.74902 0.795026 1
1 0.74902 0.795026 1
1 0.74902 0.795026 1
1 0.74902 0.795026 1
1 0.74902 0.795026 1
1 0.74902 0.795026 1
1 0.74902 0.795026 1
1 0.74902 0.795026 1
1 0.74902 0.795026 1
1 0.74902 0.795026 1
1 0.74902 0.795026 1
1 0.74902 0.795026 1
1 0.74902 0.795026 1
1 0.74902 0.795026 1
1 0.74902 0.795026 1
1 0.74902 0.795026 1
1 0.74902 0.795026 1
1 0.74902 0.795026 1
1 0.74902 0.795026 1
1 0.74902 0.795026 1
1 0.74902 0.795026 1
1 0.74902 0.795026 1
1 0.74902 0.795026 1
1 0.74902 0.795026 1
1 0.74902 0.795026 1
1 0.74902 0.795026 1
1 0.74902 0.795026 1
1 0.74902 0.795026 1
1 0.74902 0.795026 1
1 0.74902 0.795026 1
1 0.74902 0.795026 1
1 0.74902 0.795026 1
1 0.74902 0.795026 1
1 0.74902 0.795026 1
1 0.74902 0.795026 1
1 0.74902 0.795026 1
1 0.74902 0.795026 1
1 0.74902 0.795026 1
1 0.74902 0.795026 1
1 0.74902 0.795026 1
1 0.74902 0.795026 1
1 0.74902 0.795026 1
1 0.74902 0.795026 1
1 0.74902 0.795026 1
1 0.74902 0.795026 1
1 0.74902 0.795026 1
1 0.74902 0.795026 1
1 0.74902 0.795026 1
1 0.74902 0.795026 1
1 0.74902 0.795026 1
1 0.74902 0.795026 1
1 0.74902 0.795026 1
1 0.74902 0.795026 1
1 0.74902 0.795026 1
1 0.74902 0.795026 1
1 0.74902 0.795026 1
1 0.74902 0.795026 1
1 0.74902 0.795026 1
1 0.74902 0.795026 1
1 0.74902 0.795026 1
1 0.74902 0.795026 1
1 0.74902 0.795026 1
1 0.74902 0.795026 1
1 0.74902 0.795026 1
1 0.74902 0.795026 1
1 0.74902 0.795026 1
1 0.74902 0.795026 1
1 0.74902 0.795026 1
1 0.74902 0.795026 1
1 0.74902 0.795026 1
1 0.74902 0.795026 1
1 0.74902 0.795026 1
1 0.74902 0.795026 1
1 0.74902 0.795026 1
1 0.74902 0.795026 1
1 0.74902 0.795026 1
1 0.74902 0.795026 1
1 0.74902 0.795026 1
1 0.74902 0.795026 1
1 0.74902 0.795026 1
1 0.74902 0.795026 1
1 0.74902 0.795026 1
1 0.74902 0.795026 1
1 0.74902 0.795026 1
1 0.74902 0.795026 1
1 0.74902 0.795026 1
1 0.74902 0.795026 1
1 0.74902 0.795026 1
1 0.74902 0.795026 1
1 0.74902 0.795026 1
1 0.74902 0.795026 1
1 0.74902 0.795026 1
1 0.74902 0.795026 1
1 0.74902 0.795026 1
1 0.74902 0.795026 1
1 0.74902 0.795026 1
1 0.74902 0.795026 1
1 0.74902 0.795026 1
1 0.74902 0.795026 1
1 0.74902 0.795026 1
1 0.74902 0.795026 1
1 0.74902 0.795026 1
1 0.74902 0.795026 1
1 0.74902 0.795026 1
1 0.74902 0.795026 1
1 0.74902 0.795026 1
1 0.74902 0.795026 1
1 0.74902 0.795026 1
1 0.74902 0.795026 1
1 0.74902 0.795026 1
1 0.74902 0.795026 1
1 0.74902 0.795026 1
1 0.74902 0.795026 1
1 0.74902 0.795026 1
1 0.74902 0.795026 1
1 0.74902 0.795026 1
1 0.74902 0.795026 1
1 0.74902 0.795026 1
1 0.74902 0.795026 1
1 0.74902 0.795026 1
1 0.74902 0.795026 1
1 0.74902 0.795026 1
1 0.74902 0.795026 1
1 0.74902 0.795026 1
1 0.74902 0.795026 1
1 0.74902 0.795026 1
1 0.74902 0.795026 1
1 0.74902 0.795026 1
1 0.74902 0.795026 1
1 0.74902 0.795026 1
1 0.74902 0.795026 1
1 0.74902 0.795026 1
1 0.74902 0.795026 1
1 0.74902 0.795026 1
1 0.74902 0.795026 1
1 0.74902 0.795026 1
1 0.74902 0.795026 1
1 0.74902 0.795026 1
1 0.74902 0.795026 1
1 0.74902 0.795026 1
1 0.74902 0.795026 1
1 0.74902 0.795026 1
1 0.74902 0.795026 1
1 0.74902 0.795026 1
1 0.74902 0.795026 1
1 0.74902 0.795026 1
1 0.74902 0.795026 1
1 0.74902 0.795026 1
1 0.74902 0.795026 1
1 0.74902 0.795026 1
1 0.74902 0.795026 1
1 0.74902 0.795026 1
1 0.74902 0.795026 1
1 0.74902 0.795026 1
1 0.74902 0.795026 1
1 0.74902 0.795026 1
1 0.74902 0.795026 1
1 0.74902 0.795026 1
1 0.74902 0.795026 1
1 0.74902 0.795026 1
1 0.74902 0.795026 1
1 0.74902 0.795026 1
1 0.74902 0.795026 1
1 0.74902 0.795026 1
1 0.74902 0.795026 1
1 0.74902 0.795026 1
1 0.74902 0.795026 1
1 0.74902 0.795026 1
1 0.74902 0.795026 1
1 0.74902 0.795026 1
1 0.74902 0.795026 1
1 0.74902 0.795026 1
1 0.74902 0.795026 1
1 0.74902 0.795026 1
1 0.74902 0.795026 1
1 0.74902 0.795026 1
1 0.74902 0.795026 1
1 0.74902 0.795026 1
1 0.74902 0.795026 1
1 0.74902 0.795026 1
1 0.74902 0.795026 1
1 0.74902 0.795026 1
1 0.74902 0.795026 1
1 0.74902 0.795026 1
1 0.74902 0.795026 1
1 0.74902 0.795026 1
1 0.74902 0.795026 1
1 0.74902 0.795026 1
1 0.74902 0.795026 1
1 0.74902 0.795026 1
1 0.74902 0.795026 1
1 0.74902 0.795026 1
1 0.74902 0.795026 1
1 0.74902 0.795026 1
1 0.74902 0.795026 1
1 0.74902 0.795026 1
1 0.74902 0.795026 1
1 0.74902 0.795026 1
1 0.74902 0.795026 1
1 0.74902 0.795026 1
1 0.74902 0.795026 1
1 0.74902 0.795026 1
1 0.74902 0.795026 1
1 0.74902 0.795026 1
1 0.74902 0.795026 1
1 0.74902 0.795026 1
1 0.74902 0.795026 1
1 0.74902 0.795026 1
1 0.74902 0.795026 1
1 0.74902 0.795026 1
1 0.74902 0.795026 1
1 0.74902 0.795026 1
1 0.74902 0.795026 1
1 0.74902 0.795026 1
1 0.74902 0.795026 1
1 0.74902 0.795026 1
1 0.74902 0.795026 1
1 0.74902 0.795026 1
1 0.74902 0.795026 1
1 0.74902 0.795026 1
1 0.74902 0.795026 1
1 0.74902 0.795026 1
1 0.74902 0.795026 1
1 0.74902 0.795026 1
1 0.74902 0.795026 1
1 0.74902 0.795026 1
1 0.74902 0.795026 1
1 0.74902 0.795026 1
1 0.74902 0.795026 1
1 0.74902 0.795026 1
1 0.74902 0.795026 1
1 0.74902 0.795026 1
1 0.74902 0.795026 1
1 0.74902 0.795026 1
1 0.74902 0.795026 1
1 0.74902 0.795026 1
1 0.74902 0.795026 1
1 0.74902 0.795026 1
1 0.74902 0.795026 1
1 0.74902 0.795026 1
1 0.74902 0.795026 1
1 0.74902 0.795026 1
1 0.74902 0.795026 1
1 0.74902 0.795026 1
1 0.74902 0.795026 1
1 0.74902 0.795026 1
1 0.74902 0.795026 1
1 0.74902 0.795026 1
1 0.74902 0.795026 1
1 0.74902 0.795026 1
1 0.74902 0.795026 1
1 0.74902 0.795026 1
1 0.74902 0.795026 1
1 0.74902 0.795026 1
1 0.74902 0.795026 1
1 0.74902 0.795026 1
1 0.74902 0.795026 1
1 0.74902 0.795026 1
1 0.74902 0.795026 1
1 0.74902 0.795026 1
1 0.74902 0.795026 1
1 0.74902 0.795026 1
1 0.74902 0.795026 1
1 0.74902 0.795026 1
1 0.74902 0.795026 1
1 0.74902 0.795026 1
1 0.74902 0.795026 1
1 0.74902 0.795026 1
1 0.74902 0.795026 1
1 0.74902 0.795026 1
1 0.74902 0.795026 1
1 0.74902 0.795026 1
1 0.74902 0.795026 1
1 0.74902 0.795026 1
1 0.74902 0.795026 1
1 0.74902 0.795026 1
1 0.74902 0.795026 1
1 0.74902 0.795026 1
1 0.74902 0.795026 1
1 0.74902 0.795026 1
1 0.74902 0.795026 1
1 0.74902 0.795026 1
1 0.74902 0.795026 1
1 0.74902 0.795026 1
1 0.74902 0.795026 1
1 0.74902 0.795026 1
1 0.74902 0.795026 1
1 0.74902 0.795026 1
1 0.74902 0.795026 1
1 0.74902 0.795026 1
1 0.74902 0.795026 1
1 0.74902 0.795026 1
1 0.74902 0.795026 1
1 0.74902 0.795026 1
1 0.74902 0.795026 1
1 0.74902 0.795026 1
1 0.74902 0.795026 1
1 0.74902 0.795026 1
1 0.74902 0.795026 1
1 0.74902 0.795026 1
1 0.74902 0.795026 1
1 0.74902 0.795026 1
1 0.74902 0.795026 1
1 0.74902 0.795026 1
1 0.74902 0.795026 1
1 0.74902 0.795026 1
1 0.74902 0.795026 1
1 0.74902 0.795026 1
1 0.74902 0.795026 1
1 0.74902 0.795026 1
1 0.74902 0.795026 1
1 0.74902 0.795026 1
1 0.74902 0.795026 1
1 0.74902 0.795026 1
1 0.74902 0.795026 1
1 0.74902 0.795026 1
1 0.74902 0.795026 1
1 0.74902 0.795026 1
1 0.74902 0.795026 1
1 0.74902 0.795026 1
1 0.74902 0.795026 1
1 0.74902 0.795026 1
1 0.74902 0.795026 1
1 0.74902 0.795026 1
1 0.74902 0.795026 1
1 0.74902 0.795026 1
1 0.74902 0.795026 1
1 0.74902 0.795026 1
1 0.74902 0.795026 1
1 0.74902 0.795026 1
1 0.74902 0.795026 1
1 0.74902 0.795026 1
1 0.74902 0.795026 1
1 0.74902 0.795026 1
1 0.74902 0.795026 1
1 0.74902 0.795026 1
1 0.74902 0.795026 1
1 0.74902 0.795026 1
1 0.74902 0.795026 1
1 0.74902 0.795026 1
1 0.74902 0.795026 1
1 0.74902 0.795026 1
1 0.74902 0.795026 1
1 0.74902 0.795026 1
1 0.74902 0.795026 1
1 0.74902 0.795026 1
1 0.74902 0.795026 1
1 0.74902 0.795026 1
1 0.74902 0.795026 1
1 0.74902 0.795026 1
1 0.74902 0.795026 1
1 0.74902 0.795026 1
1 0.74902 0.795026 1
1 0.74902 0.795026 1
1 0.74902 0.795026 1
1 0.74902 0.795026 1
1 0.74902 0.795026 1
1 0.74902 0.795026 1
1 0.74902 0.795026 1
1 0.74902 0.795026 1
1 0.74902 0.795026 1
1 0.74902 0.795026 1
1 0.74902 0.795026 1
1 0.74902 0.795026 1
1 0.74902 0.795026 1
1 0.74902 0.795026 1
1 0.74902 0.795026 1
1 0.74902 0.795026 1
1 0.74902 0.795026 1
1 0.74902 0.795026 1
1 0.74902 0.795026 1
1 0.74902 0.795026 1
1 0.74902 0.795026 1
1 0.74902 0.795026 1
1 0.74902 0.795026 1
1 0.74902 0.795026 1
1 0.74902 0.795026 1
1 0.74902 0.795026 1
1 0.74902 0.795026 1
1 0.74902 0.795026 1
1 0.74902 0.795026 1
1 0.74902 0.795026 1
1 0.74902 0.795026 1
1 0.74902 0.795026 1
1 0.74902 0.795026 1
1 0.74902 0.795026 1
1 0.74902 0.795026 1
1 0.74902 0.795026 1
1 0.74902 0.795026 1
1 0.74902 0.795026 1
1 0.74902 0.795026 1
1 0.74902 0.795026 1
1 0.74902 0.795026 1
1 0.74902 0.795026 1
1 0.74902 0.795026 1
1 0.74902 0.795026 1
1 0.74902 0.795026 1
1 0.74902 0.795026 1
1 0.74902 0.795026 1
1 0.74902 0.795026 1
1 0.74902 0.795026 1
1 0.74902 0.795026 1
1 0.74902 0.795026 1
1 0.74902 0.795026 1
1 0.74902 0.795026 1
1 0.74902 0.795026 1
1 0.74902 0.795026 1
1 0.74902 0.795026 1
1 0.74902 0.795026 1
1 0.74902 0.795026 1
1 0.74902 0.795026 1
1 0.74902 0.795026 1
1 0.74902 0.795026 1
1 0.74902 0.795026 1
1 0.74902 0.795026 1
1 0.74902 0.795026 1
1 0.74902 0.795026 1
1 0.74902 0.795026 1
1 0.74902 0.795026 1
1 0.74902 0.795026 1
1 0.74902 0.795026 1
1 0.74902 0.795026 1
1 0.74902 0.795026 1
1 0.74902 0.795026 1
1 0.74902 0.795026 1
1 0.74902 0.795026 1
1 0.74902 0.795026 1
1 0.74902 0.795026 1
1 0.74902 0.795026 1
1 0.74902 0.795026 1
1 0.74902 0.795026 1
1 0.74902 0.795026 1
1 0.74902 0.795026 1
1 0.74902 0.795026 1
1 0.74902 0.795026 1
1 0.74902 0.795026 1
1 0.74902 0.795026 1
1 0.74902 0.795026 1
1 0.74902 0.795026 1
1 0.74902 0.795026 1
1 0.74902 0.795026 1
1 0.74902 0.795026 1
1 0.74902 0.795026 1
1 0.74902 0.795026 1
1 0.74902 0.795026 1
1 0.74902 0.795026 1
1 0.74902 0.795026 1
1 0.74902 0.795026 1
1 0.74902 0.795026 1
1 0.74902 0.795026 1
1 0.74902 0.795026 1
1 0.74902 0.795026 1
1 0.74902 0.795026 1
1 0.74902 0.795026 1
1 0.74902 0.795026 1
1 0.74902 0.795026 1
1 0.74902 0.795026 1
1 0.74902 0.795026 1
1 0.74902 0.795026 1
1 0.74902 0.795026 1
1 0.74902 0.795026 1
1 0.74902 0.795026 1
1 0.74902 0.795026 1
1 0.74902 0.795026 1
1 0.74902 0.795026 1
1 0.74902 0.795026 1
1 0.74902 0.795026 1
1 0.74902 0.795026 1
1 0.74902 0.795026 1
1 0.74902 0.795026 1
1 0.74902 0.795026 1
1 0.74902 0.795026 1
1 0.74902 0.795026 1
1 0.74902 0.795026 1
1 0.74902 0.795026 1
1 0.74902 0.795026 1
1 0.74902 0.795026 1
1 0.74902 0.795026 1
1 0.74902 0.795026 1
1 0.74902 0.795026 1
1 0.74902 0.795026 1
1 0.74902 0.795026 1
1 0.74902 0.795026 1
1 0.74902 0.795026 1
1 0.74902 0.795026 1
1 0.74902 0.795026 1
1 0.74902 0.795026 1
1 0.74902 0.795026 1
1 0.74902 0.795026 1
1 0.74902 0.795026 1
1 0.74902 0.795026 1
1 0.74902 0.795026 1
1 0.74902 0.795026 1
1 0.74902 0.795026 1
1 0.74902 0.795026 1
1 0.74902 0.795026 1
1 0.74902 0.795026 1
1 0.74902 0.795026 1
1 0.74902 0.795026 1
1 0.74902 0.795026 1
1 0.74902 0.795026 1
1 0.74902 0.795026 1
1 0.74902 0.795026 1
1 0.74902 0.795026 1
1 0.74902 0.795026 1
1 0.74902 0.795026 1
1 0.74902 0.795026 1
1 0.74902 0.795026 1
1 0.74902 0.795026 1
1 0.74902 0.795026 1
1 0.74902 0.795026 1
1 0.74902 0.795026 1
1 0.74902 0.795026 1
1 0.74902 0.795026 1
1 0.74902 0.795026 1
1 0.74902 0.795026 1
1 0.74902 0.795026 1
1 0.74902 0.795026 1
1 0.74902 0.795026 1
1 0.74902 0.795026 1
1 0.74902 0.795026 1
1 0.74902 0.795026 1
1 0.74902 0.795026 1
1 0.74902 0.795026 1
1 0.74902 0.795026 1
1 0.74902 0.795026 1
1 0.74902 0.795026 1
1 0.74902 0.795026 1
1 0.74902 0.795026 1
1 0.74902 0.795026 1
1 0.74902 0.795026 1
1 0.74902 0.795026 1
1 0.74902 0.795026 1
1 0.74902 0.795026 1
1 0.74902 0.795026 1
1 0.74902 0.795026 1
1 0.74902 0.795026 1
1 0.74902 0.795026 1
1 0.74902 0.795026 1
1 0.74902 0.795026 1
1 0.74902 0.795026 1
1 0.74902 0.795026 1
1 0.74902 0.795026 1
1 0.74902 0.795026 1
1 0.74902 0.795026 1
1 0.74902 0.795026 1
1 0.74902 0.795026 1
1 0.74902 0.795026 1
1 0.74902 0.795026 1
1 0.74902 0.795026 1
1 0.74902 0.795026 1
1 0.74902 0.795026 1
1 0.74902 0.795026 1
1 0.74902 0.795026 1
1 0.74902 0.795026 1
1 0.74902 0.795026 1
1 0.74902 0.795026 1
1 0.74902 0.795026 1
1 0.74902 0.795026 1
1 0.74902 0.795026 1

