# vtk DataFile Version 3.0
Gocad TSurf to VTK
ASCII
DATASET POLYDATA
POINTS 93 float
21608200.000 4587230.000 -350.000
21608300.000 4588180.000 250.000
21608050.000 4587845.000 70.000
21608150.000 4588185.000 250.000
21608000.000 4587370.000 -230.000
21607350.000 4587930.000 130.000
21608025.000 4586482.500 -717.500
21607950.000 4585945.000 -990.000
21608100.000 4586140.000 -920.000
21608025.000 4586042.500 -955.000
21607875.000 4585847.500 -1025.000
21607800.000 4585750.000 -1060.000
21607550.000 4586945.000 -432.500
21607675.000 4585907.500 -983.750
21607300.000 4586380.000 -755.000
21607675.000 4585515.000 -1188.750
21607550.000 4585280.000 -1317.500
21607425.000 4585045.000 -1446.250
21607300.000 4584810.000 -1575.000
21607200.000 4585007.500 -1473.750
21607200.000 4586185.000 -858.750
21607250.000 4584677.500 -1658.750
21607200.000 4584545.000 -1742.500
21607000.000 4585402.500 -1271.250
21607150.000 4584412.500 -1826.250
21607100.000 4584280.000 -1910.000
21606875.000 4584640.000 -1693.750
21606975.000 4584165.000 -1945.000
21606550.000 4585660.000 -1107.500
21607000.000 4585795.000 -1066.250
21606375.000 4585690.000 -1076.250
21606400.000 4586510.000 -605.000
21606850.000 4584050.000 -1980.000
21606725.000 4583935.000 -2015.000
21606600.000 4583820.000 -2050.000
21606350.000 4584267.500 -1806.250
21605850.000 4585162.500 -1318.750
21606500.000 4583707.500 -2092.500
21606400.000 4583595.000 -2135.000
21606300.000 4583482.500 -2177.500
21606200.000 4583370.000 -2220.000
21605550.000 4584890.000 -1360.000
21605650.000 4586180.000 -771.250
21606025.000 4583570.000 -2076.250
21605675.000 4583970.000 -1788.750
21606125.000 4583285.000 -2226.250
21606050.000 4583200.000 -2232.500
21605975.000 4583115.000 -2238.750
21605900.000 4583030.000 -2245.000
21605850.000 4582960.000 -2283.750
21605600.000 4583460.000 -2022.500
21605375.000 4584330.000 -1582.500
21605800.000 4582890.000 -2322.500
21605750.000 4582820.000 -2361.250
21605700.000 4582750.000 -2400.000
21605000.000 4584810.000 -1395.000
21604750.000 4586330.000 -585.000
21604775.000 4587290.000 -100.000
21603800.000 4587970.000 280.000
21603975.000 4587942.500 266.250
21604150.000 4587915.000 252.500
21603975.000 4587942.500 266.250
21604325.000 4587880.000 238.750
21604325.000 4587887.500 238.750
21604500.000 4587860.000 225.000
21604625.000 4587855.000 203.750
21604750.000 4587850.000 182.500
21604875.000 4587845.000 161.250
21605000.000 4587840.000 140.000
21605200.000 4587852.500 140.000
21605700.000 4586750.000 -467.500
21605400.000 4587865.000 140.000
21605600.000 4587877.500 140.000
21605800.000 4587890.000 140.000
21606000.000 4587742.500 63.750
21606200.000 4587595.000 -12.500
21605975.000 4587892.500 153.750
21606150.000 4587895.000 167.500
21606325.000 4587897.500 181.250
21606600.000 4587300.000 -165.000
21606500.000 4587900.000 195.000
21606675.000 4587942.500 198.750
21606850.000 4587985.000 202.500
21607050.000 4587877.500 116.250
21606950.000 4586840.000 -460.000
21607025.000 4588027.500 206.250
21607200.000 4588070.000 210.000
21607325.000 4588102.500 220.000
21607450.000 4588135.000 230.000
21607575.000 4588167.500 240.000
21607700.000 4588200.000 250.000
21607850.000 4588195.000 250.000
21608000.000 4588190.000 250.000

POLYGONS 124 496
3 35 34 30
3 31 28 29
3 50 52 49
3 68 57 42
3 13 11 12
3 69 68 42
3 31 84 79
3 57 56 51
3 16 15 13
3 34 33 30
3 12 11 4
3 10 7 4
3 55 54 50
3 4 0 2
3 44 48 47
3 30 70 36
3 43 41 44
3 17 16 13
3 14 20 19
3 12 4 5
3 35 30 36
3 75 74 31
3 76 73 74
3 14 86 84
3 6 7 9
3 23 26 25
3 18 14 19
3 42 41 36
3 40 36 41
3 6 0 4
3 90 89 5
3 39 38 36
3 84 29 20
3 29 28 23
3 86 14 12
3 4 2 5
3 68 67 57
3 62 64 63
3 6 9 8
3 14 13 12
3 77 76 74
3 50 49 44
3 86 85 83
3 54 53 50
3 53 52 50
3 3 92 2
3 14 17 13
3 55 51 56
3 58 55 56
3 25 26 27
3 18 19 21
3 31 29 84
3 0 1 2
3 6 8 0
3 33 32 30
3 19 22 21
3 29 23 20
3 80 78 79
3 62 56 57
3 71 69 70
3 65 57 66
3 60 61 59
3 78 75 79
3 82 81 79
3 91 90 2
3 23 25 24
3 1 3 2
3 31 70 30
3 86 83 84
3 62 57 64
3 30 28 31
3 89 88 5
3 59 58 56
3 24 22 23
3 2 90 5
3 38 35 36
3 75 77 74
3 34 35 37
3 57 41 42
3 79 75 31
3 40 43 45
3 64 57 65
3 92 91 2
3 88 87 5
3 26 32 27
3 14 18 17
3 61 58 59
3 84 83 79
3 59 56 60
3 72 71 70
3 26 28 30
3 81 80 79
3 43 46 45
3 60 56 62
3 70 42 36
3 36 40 39
3 35 38 37
3 78 77 75
3 47 46 44
3 19 20 23
3 31 73 70
3 20 14 84
3 5 86 12
3 11 13 15
3 85 82 83
3 73 72 70
3 60 62 63
3 51 50 44
3 44 41 51
3 74 73 31
3 87 86 5
3 22 19 23
3 55 50 51
3 83 82 79
3 41 57 51
3 67 66 57
3 28 26 23
3 69 42 70
3 43 40 41
3 49 48 44
3 32 26 30
3 46 43 44
3 7 6 4
3 11 10 4

POINT_DATA 93
COLOR_SCALARS GocadColor 4
1 0.74902 0.795026 1
1 0.74902 0.795026 1
1 0.74902 0.795026 1
1 0.74902 0.795026 1
1 0.74902 0.795026 1
1 0.74902 0.795026 1
1 0.74902 0.795026 1
1 0.74902 0.795026 1
1 0.74902 0.795026 1
1 0.74902 0.795026 1
1 0.74902 0.795026 1
1 0.74902 0.795026 1
1 0.74902 0.795026 1
1 0.74902 0.795026 1
1 0.74902 0.795026 1
1 0.74902 0.795026 1
1 0.74902 0.795026 1
1 0.74902 0.795026 1
1 0.74902 0.795026 1
1 0.74902 0.795026 1
1 0.74902 0.795026 1
1 0.74902 0.795026 1
1 0.74902 0.795026 1
1 0.74902 0.795026 1
1 0.74902 0.795026 1
1 0.74902 0.795026 1
1 0.74902 0.795026 1
1 0.74902 0.795026 1
1 0.74902 0.795026 1
1 0.74902 0.795026 1
1 0.74902 0.795026 1
1 0.74902 0.795026 1
1 0.74902 0.795026 1
1 0.74902 0.795026 1
1 0.74902 0.795026 1
1 0.74902 0.795026 1
1 0.74902 0.795026 1
1 0.74902 0.795026 1
1 0.74902 0.795026 1
1 0.74902 0.795026 1
1 0.74902 0.795026 1
1 0.74902 0.795026 1
1 0.74902 0.795026 1
1 0.74902 0.795026 1
1 0.74902 0.795026 1
1 0.74902 0.795026 1
1 0.74902 0.795026 1
1 0.74902 0.795026 1
1 0.74902 0.795026 1
1 0.74902 0.795026 1
1 0.74902 0.795026 1
1 0.74902 0.795026 1
1 0.74902 0.795026 1
1 0.74902 0.795026 1
1 0.74902 0.795026 1
1 0.74902 0.795026 1
1 0.74902 0.795026 1
1 0.74902 0.795026 1
1 0.74902 0.795026 1
1 0.74902 0.795026 1
1 0.74902 0.795026 1
1 0.74902 0.795026 1
1 0.74902 0.795026 1
1 0.74902 0.795026 1
1 0.74902 0.795026 1
1 0.74902 0.795026 1
1 0.74902 0.795026 1
1 0.74902 0.795026 1
1 0.74902 0.795026 1
1 0.74902 0.795026 1
1 0.74902 0.795026 1
1 0.74902 0.795026 1
1 0.74902 0.795026 1
1 0.74902 0.795026 1
1 0.74902 0.795026 1
1 0.74902 0.795026 1
1 0.74902 0.795026 1
1 0.74902 0.795026 1
1 0.74902 0.795026 1
1 0.74902 0.795026 1
1 0.74902 0.795026 1
1 0.74902 0.795026 1
1 0.74902 0.795026 1
1 0.74902 0.795026 1
1 0.74902 0.795026 1
1 0.74902 0.795026 1
1 0.74902 0.795026 1
1 0.74902 0.795026 1
1 0.74902 0.795026 1
1 0.74902 0.795026 1
1 0.74902 0.795026 1
1 0.74902 0.795026 1
1 0.74902 0.795026 1

