# vtk DataFile Version 3.0
Gocad TSurf to VTK
ASCII
DATASET POLYDATA
POINTS 64 float
21578875.000 4570292.500 62.500
21579300.000 4570570.000 -365.000
21579350.000 4570330.000 -560.000
21579500.000 4570650.000 -600.000
21579225.000 4570157.500 -482.500
21578700.000 4570360.000 335.000
21578650.000 4570215.000 342.500
21578600.000 4570070.000 350.000
21578550.000 4569925.000 357.500
21578500.000 4569780.000 365.000
21579400.000 4570090.000 -755.000
21579375.000 4570210.000 -657.500
21578700.000 4569735.000 36.250
21579375.000 4569967.500 -803.750
21578425.000 4569637.500 365.000
21578350.000 4569495.000 365.000
21579100.000 4569645.000 -621.250
21578275.000 4569352.500 365.000
21578200.000 4569210.000 365.000
21579300.000 4569600.000 -950.000
21578375.000 4569200.000 96.250
21578725.000 4569180.000 -441.250
21578125.000 4569112.500 385.000
21578050.000 4569015.000 405.000
21577975.000 4568917.500 425.000
21577900.000 4568820.000 445.000
21578900.000 4569180.000 -710.000
21579200.000 4569502.500 -890.000
21578025.000 4568740.000 246.250
21578775.000 4569002.500 -620.000
21577827.391 4568705.652 455.890
21577807.156 4568664.965 453.203
21577743.063 4568536.133 444.695
21578150.000 4568660.000 47.500
21577733.266 4568516.457 443.396
21578525.000 4568667.500 -440.000
21578900.000 4568780.000 -650.000
21578400.000 4568500.000 -350.000
21577610.656 4568270.008 427.119
21578900.000 4568650.000 -630.000
21579150.000 4568860.000 -848.750
21578900.000 4569047.500 -690.000
21579400.000 4569070.000 -1067.500
21579650.000 4569280.000 -1286.250
21579900.000 4569490.000 -1505.000
21579750.000 4569520.000 -1366.250
21580000.000 4569610.000 -1631.250
21580100.000 4569730.000 -1757.500
21580200.000 4569850.000 -1883.750
21579450.000 4569580.000 -1088.750
21580300.000 4569970.000 -2010.000
21579700.000 4569990.000 -1227.500
21580250.000 4570070.000 -1883.750
21580200.000 4570170.000 -1757.500
21579900.000 4570180.000 -1366.250
21580150.000 4570270.000 -1631.250
21580100.000 4570370.000 -1505.000
21579950.000 4570440.000 -1278.750
21579450.000 4570370.000 -677.500
21579800.000 4570510.000 -1052.500
21579650.000 4570580.000 -826.250
21579475.000 4570510.000 -638.750
21577585.500 4568219.449 423.780
21577668.594 4568386.477 434.811

POLYGONS 87 348
3 39 35 36
3 53 54 55
3 49 48 45
3 28 32 31
3 33 38 63
3 29 36 35
3 57 10 58
3 53 51 54
3 10 9 4
3 54 56 55
3 51 49 19
3 33 29 35
3 10 11 58
3 1 3 2
3 12 10 13
3 20 19 21
3 10 4 11
3 10 56 54
3 56 10 57
3 0 1 2
3 45 47 46
3 44 26 45
3 26 44 43
3 7 0 4
3 23 22 20
3 2 58 11
3 40 39 36
3 26 21 27
3 18 19 20
3 29 28 26
3 41 26 43
3 8 7 4
3 33 34 32
3 5 1 0
3 13 51 19
3 54 51 13
3 3 61 2
3 25 21 26
3 59 58 60
3 18 17 16
3 61 3 60
3 19 49 27
3 24 23 21
3 41 43 42
3 17 15 16
3 23 20 21
3 59 57 58
3 33 37 38
3 45 26 27
3 9 8 4
3 35 37 33
3 15 12 16
3 52 50 51
3 6 5 0
3 39 37 35
3 2 61 58
3 52 51 53
3 7 6 0
3 41 29 26
3 40 36 41
3 38 37 62
3 58 61 60
3 34 33 63
3 15 14 12
3 19 27 21
3 25 24 21
3 10 54 13
3 4 2 11
3 36 29 41
3 22 18 20
3 44 45 46
3 30 28 31
3 42 40 41
3 48 47 45
3 14 9 12
3 28 33 32
3 9 10 12
3 50 49 51
3 16 13 19
3 19 18 16
3 49 45 27
3 28 25 26
3 49 50 48
3 12 13 16
3 30 25 28
3 28 29 33
3 0 2 4

POINT_DATA 64
COLOR_SCALARS GocadColor 4
0.819608 0.698116 0.549615 1
0.819608 0.698116 0.549615 1
0.819608 0.698116 0.549615 1
0.819608 0.698116 0.549615 1
0.819608 0.698116 0.549615 1
0.819608 0.698116 0.549615 1
0.819608 0.698116 0.549615 1
0.819608 0.698116 0.549615 1
0.819608 0.698116 0.549615 1
0.819608 0.698116 0.549615 1
0.819608 0.698116 0.549615 1
0.819608 0.698116 0.549615 1
0.819608 0.698116 0.549615 1
0.819608 0.698116 0.549615 1
0.819608 0.698116 0.549615 1
0.819608 0.698116 0.549615 1
0.819608 0.698116 0.549615 1
0.819608 0.698116 0.549615 1
0.819608 0.698116 0.549615 1
0.819608 0.698116 0.549615 1
0.819608 0.698116 0.549615 1
0.819608 0.698116 0.549615 1
0.819608 0.698116 0.549615 1
0.819608 0.698116 0.549615 1
0.819608 0.698116 0.549615 1
0.819608 0.698116 0.549615 1
0.819608 0.698116 0.549615 1
0.819608 0.698116 0.549615 1
0.819608 0.698116 0.549615 1
0.819608 0.698116 0.549615 1
0.819608 0.698116 0.549615 1
0.819608 0.698116 0.549615 1
0.819608 0.698116 0.549615 1
0.819608 0.698116 0.549615 1
0.819608 0.698116 0.549615 1
0.819608 0.698116 0.549615 1
0.819608 0.698116 0.549615 1
0.819608 0.698116 0.549615 1
0.819608 0.698116 0.549615 1
0.819608 0.698116 0.549615 1
0.819608 0.698116 0.549615 1
0.819608 0.698116 0.549615 1
0.819608 0.698116 0.549615 1
0.819608 0.698116 0.549615 1
0.819608 0.698116 0.549615 1
0.819608 0.698116 0.549615 1
0.819608 0.698116 0.549615 1
0.819608 0.698116 0.549615 1
0.819608 0.698116 0.549615 1
0.819608 0.698116 0.549615 1
0.819608 0.698116 0.549615 1
0.819608 0.698116 0.549615 1
0.819608 0.698116 0.549615 1
0.819608 0.698116 0.549615 1
0.819608 0.698116 0.549615 1
0.819608 0.698116 0.549615 1
0.819608 0.698116 0.549615 1
0.819608 0.698116 0.549615 1
0.819608 0.698116 0.549615 1
0.819608 0.698116 0.549615 1
0.819608 0.698116 0.549615 1
0.819608 0.698116 0.549615 1
0.819608 0.698116 0.549615 1
0.819608 0.698116 0.549615 1

