# vtk DataFile Version 3.0
Gocad TSurf to VTK
ASCII
DATASET POLYDATA
POINTS 632 float
21614950.000 4573460.000 -231.250
21615000.000 4573510.000 -210.000
21615000.000 4573427.500 -213.750
21615450.000 4573150.000 -78.750
21614900.000 4573410.000 -252.500
21615000.000 4573262.500 -221.250
21615300.000 4573160.000 -127.500
21614850.000 4573360.000 -273.750
21614800.000 4573310.000 -295.000
21615000.000 4573180.000 -225.000
21616350.000 4572322.500 232.500
21615850.000 4572867.500 57.500
21616599.125 4572050.953 319.694
21616615.266 4572122.633 315.172
21616599.164 4572050.590 319.715
21616637.078 4572226.164 308.300
21616693.930 4572297.488 313.011
21616743.508 4572359.691 317.119
21616749.641 4572366.273 317.753
21616818.422 4572440.133 324.869
21616832.469 4572445.387 325.958
21616050.000 4573022.500 75.000
21616850.555 4572464.219 327.807
21615600.000 4573447.500 -206.250
21615300.000 4573530.000 -237.500
21616500.000 4572905.000 180.000
21615600.000 4573550.000 -265.000
21616978.383 4572532.262 338.464
21617179.781 4572639.461 355.255
21616953.594 4572519.066 336.398
21617290.742 4572698.527 364.507
21617338.445 4572700.094 367.601
21617319.117 4572747.590 368.132
21616725.000 4573317.500 207.500
21617228.734 4572969.684 370.614
21615700.000 4573635.000 -140.000
21615800.000 4573720.000 -15.000
21615525.000 4573632.500 -230.000
21615375.000 4573797.500 -160.000
21615200.000 4573710.000 -405.000
21615225.000 4573752.500 -335.000
21615450.000 4573540.000 -251.250
21615150.000 4573660.000 -356.250
21615100.000 4573610.000 -307.500
21615050.000 4573560.000 -258.750
21615250.000 4573795.000 -265.000
21615275.000 4573837.500 -195.000
21615300.000 4573880.000 -125.000
21615500.000 4573920.000 -35.000
21615325.000 4573917.500 -97.500
21615725.000 4573900.000 37.500
21615600.000 4573940.000 10.000
21616300.000 4573700.000 167.500
21615700.000 4573960.000 55.000
21617100.000 4573240.000 365.000
21617025.000 4573350.000 361.250
21617175.000 4573097.500 371.250
21617182.578 4573083.102 371.881
21616875.000 4573570.000 353.750
21616800.000 4573680.000 350.000
21616625.000 4573815.000 280.000
21616000.000 4574155.000 66.250
21617045.508 4573762.859 388.360
21617180.086 4573850.246 400.165
21617198.469 4573864.949 401.168
21616100.000 4574220.000 70.000
21617264.414 4573917.699 404.769
21617359.016 4573993.375 409.935
21617435.789 4574009.527 413.420
21617200.000 4574095.000 325.000
21616400.000 4574385.000 25.000
21617605.305 4574105.664 422.060
21617740.039 4574182.078 428.927
21617760.070 4574193.438 429.948
21618069.633 4574316.035 464.185
21616000.000 4574530.000 -125.000
21615900.000 4574480.000 -111.250
21618131.484 4574340.535 471.026
21615700.000 4574560.000 -225.000
21615675.000 4574502.500 -186.250
21615650.000 4574445.000 -147.500
21615625.000 4574387.500 -108.750
21615600.000 4574330.000 -70.000
21615625.000 4574237.500 -38.750
21615675.000 4574052.500 23.750
21615550.000 4574255.000 -56.250
21615500.000 4574180.000 -42.500
21615450.000 4574105.000 -28.750
21615400.000 4574030.000 -15.000
21615375.000 4573992.500 -42.500
21615350.000 4573955.000 -70.000
21616300.000 4575267.500 -830.000
21616200.000 4575340.000 -935.000
21616950.000 4575202.500 -368.750
21618275.000 4575572.500 233.750
21616600.000 4575050.000 -515.000
21616150.000 4575250.000 -910.000
21616100.000 4575160.000 -885.000
21616050.000 4575070.000 -860.000
21616000.000 4574980.000 -835.000
21616400.000 4574960.000 -550.000
21616750.000 4574880.000 -335.000
21615950.000 4574907.500 -790.000
21615900.000 4574835.000 -745.000
21615850.000 4574762.500 -700.000
21615800.000 4574690.000 -655.000
21617450.000 4574860.000 65.000
21618000.000 4575010.000 285.000
21615850.000 4574650.000 -522.500
21616450.000 4574620.000 -140.000
21615775.000 4574657.500 -547.500
21615750.000 4574625.000 -440.000
21615900.000 4574610.000 -390.000
21615725.000 4574592.500 -332.500
21615700.000 4574560.000 -225.000
21616000.000 4574530.000 -125.000
21618250.000 4574395.000 433.750
21617350.000 4574605.000 41.250
21618371.633 4574366.617 486.796
21618382.867 4574398.164 492.274
21618131.484 4574340.535 471.026
21618404.477 4574458.855 502.814
21618465.969 4574631.570 532.808
21618477.813 4574664.828 538.584
21618489.891 4574712.082 544.701
21618526.500 4574790.547 554.636
21618575.313 4574866.172 564.028
21618623.945 4574941.520 573.386
21618740.391 4575121.918 595.791
21618810.891 4575231.152 609.358
21618879.969 4575287.117 615.864
21618888.461 4575299.422 617.385
21618932.531 4575363.285 625.278
21618825.000 4575397.500 561.250
21618934.219 4575379.352 627.390
21618936.422 4575419.785 631.444
21618940.445 4575493.703 638.854
21618945.906 4575593.969 648.905
21618953.734 4575737.719 663.316
21618959.516 4575843.945 673.964
21618976.984 4575945.172 683.887
21618900.000 4576230.000 630.000
21617100.000 4575750.000 -275.000
21618976.984 4575945.172 683.887
21618950.000 4576045.000 665.000
21618925.000 4576137.500 647.500
21616800.000 4575780.000 -390.000
21616650.000 4575670.000 -526.250
21618575.000 4576245.000 486.250
21617400.000 4576162.500 -56.250
21618800.000 4576420.000 607.500
21618750.000 4576515.000 596.250
21618700.000 4576610.000 585.000
21617925.000 4576275.000 198.750
21618050.000 4576695.000 327.500
21617300.000 4576575.000 -68.750
21618650.000 4576732.500 588.750
21618550.000 4576977.500 596.250
21618650.000 4576732.500 588.750
21618546.914 4576985.063 596.481
21618463.633 4577067.273 577.980
21617200.000 4576670.000 -110.000
21618452.992 4577084.453 574.328
21617000.000 4576485.000 -215.000
21616700.000 4576270.000 -367.500
21616800.000 4576550.000 -305.000
21616750.000 4576410.000 -336.250
21617100.000 4576810.000 -135.000
21616800.000 4576720.000 -281.250
21617250.000 4577040.000 -27.500
21616900.000 4577090.000 -185.000
21618200.000 4577177.500 463.750
21617600.000 4577332.500 191.250
21618427.055 4577118.844 566.870
21618346.148 4577227.195 543.402
21618323.523 4577257.492 536.839
21618314.820 4577319.594 541.973
21618301.648 4577413.625 549.748
21618281.438 4577571.008 562.635
21618258.031 4577724.969 575.491
21617500.000 4577670.000 222.500
21618252.063 4577745.203 577.379
21617300.000 4577410.000 55.000
21616850.000 4577770.000 -38.750
21616775.000 4577395.000 -175.000
21617900.000 4578190.000 557.500
21618128.680 4578016.859 605.685
21616700.000 4577890.000 -70.000
21616725.000 4577725.000 -105.000
21617980.219 4578294.281 624.682
21617933.742 4578383.500 630.590
21618015.336 4578229.211 620.357
21618062.867 4578141.141 614.503
21618121.969 4578031.633 607.224
21617933.828 4578489.883 636.928
21617725.000 4578540.000 526.250
21617943.797 4578645.781 646.090
21616600.000 4578570.000 -83.750
21616600.000 4577850.000 -125.000
21616775.000 4579032.500 80.000
21616475.000 4578912.500 -93.750
21617800.000 4579042.500 578.750
21617700.000 4579240.000 530.000
21617900.000 4578845.000 627.500
21617900.000 4578845.000 627.500
21617939.594 4578766.805 646.802
21617939.594 4578766.805 646.802
21617600.000 4579355.000 530.000
21617125.000 4579477.500 380.000
21617500.000 4579470.000 530.000
21616225.000 4579117.500 -141.250
21616100.000 4579220.000 -165.000
21616050.000 4578910.000 -257.500
21617300.000 4579700.000 530.000
21617400.000 4579585.000 530.000
21616450.000 4579705.000 210.000
21615950.000 4579505.000 -62.500
21616925.000 4580067.500 571.250
21616800.000 4580190.000 585.000
21615800.000 4579790.000 40.000
21616000.000 4580035.000 172.500
21615350.000 4580135.000 -83.750
21616650.000 4580625.000 573.750
21616650.000 4580625.000 573.750
21616600.000 4580770.000 570.000
21615200.000 4580250.000 -125.000
21615225.000 4580080.000 -160.000
21615250.000 4579910.000 -195.000
21614925.000 4579960.000 -328.750
21615050.000 4579830.000 -307.500
21614800.000 4580090.000 -350.000
21615175.000 4579700.000 -286.250
21615275.000 4579740.000 -230.000
21615300.000 4579570.000 -265.000
21615775.000 4579610.000 -71.250
21615400.000 4579445.000 -300.000
21615750.000 4579430.000 -182.500
21615500.000 4579320.000 -335.000
21615725.000 4579250.000 -293.750
21615600.000 4579195.000 -370.000
21615700.000 4579070.000 -405.000
21615775.000 4578952.500 -391.250
21615850.000 4578835.000 -377.500
21615925.000 4578717.500 -363.750
21616000.000 4578600.000 -350.000
21616150.000 4578412.500 -293.750
21616300.000 4578225.000 -237.500
21616450.000 4578037.500 -181.250
21616650.000 4577695.000 -146.250
21616750.000 4577560.000 -140.000
21616700.000 4577540.000 -167.500
21616750.000 4577385.000 -188.750
21616800.000 4577230.000 -210.000
21616800.000 4577060.000 -233.750
21616800.000 4576890.000 -257.500
21618181.047 4577901.555 593.671
21616650.000 4576130.000 -398.750
21616600.000 4575990.000 -430.000
21616650.000 4575937.500 -420.000
21616575.000 4575920.000 -458.750
21616525.000 4575780.000 -516.250
21616550.000 4575850.000 -487.500
21616500.000 4575710.000 -545.000
21616425.000 4575617.500 -642.500
21616350.000 4575525.000 -740.000
21616350.000 4575450.000 -798.750
21616275.000 4575432.500 -837.500
21613400.000 4586710.000 -390.000
21613325.000 4586785.000 -446.250
21613450.000 4586985.000 -327.500
21613250.000 4586860.000 -502.500
21613650.000 4586687.500 -192.500
21613750.000 4587270.000 -80.000
21613450.000 4586575.000 -355.000
21613600.000 4586495.000 -237.500
21613875.000 4586795.000 -57.500
21613500.000 4586440.000 -320.000
21613550.000 4586305.000 -285.000
21613600.000 4586170.000 -250.000
21613800.000 4586290.000 -95.000
21613800.000 4586125.000 -151.250
21613925.000 4586187.500 -71.250
21613650.000 4586035.000 -267.500
21613800.000 4585960.000 -207.500
21613700.000 4585900.000 -285.000
21613750.000 4585765.000 -302.500
21613800.000 4585630.000 -320.000
21614300.000 4585880.000 0.000
21613950.000 4585535.000 -285.000
21614600.000 4585852.500 126.250
21613850.000 4585492.500 -341.250
21613900.000 4585355.000 -362.500
21613950.000 4585217.500 -383.750
21614000.000 4585080.000 -405.000
21614400.000 4585250.000 -180.000
21614100.000 4585007.500 -373.750
[...]
POINT_DATA 632
COLOR_SCALARS GocadColor 4
0.819608 0.698116 0.549615 1
0.819608 0.698116 0.549615 1
0.819608 0.698116 0.549615 1
0.819608 0.698116 0.549615 1
0.819608 0.698116 0.549615 1
0.819608 0.698116 0.549615 1
0.819608 0.698116 0.549615 1
0.819608 0.698116 0.549615 1
0.819608 0.698116 0.549615 1
0.819608 0.698116 0.549615 1
0.819608 0.698116 0.549615 1
0.819608 0.698116 0.549615 1
0.819608 0.698116 0.549615 1
0.819608 0.698116 0.549615 1
0.819608 0.698116 0.549615 1
0.819608 0.698116 0.549615 1
0.819608 0.698116 0.549615 1
0.819608 0.698116 0.549615 1
0.819608 0.698116 0.549615 1
0.819608 0.698116 0.549615 1
0.819608 0.698116 0.549615 1
0.819608 0.698116 0.549615 1
0.819608 0.698116 0.549615 1
0.819608 0.698116 0.549615 1
0.819608 0.698116 0.549615 1
0.819608 0.698116 0.549615 1
0.819608 0.698116 0.549615 1
0.819608 0.698116 0.549615 1
0.819608 0.698116 0.549615 1
0.819608 0.698116 0.549615 1
0.819608 0.698116 0.549615 1
0.819608 0.698116 0.549615 1
0.819608 0.698116 0.549615 1
0.819608 0.698116 0.549615 1
0.819608 0.698116 0.549615 1
0.819608 0.698116 0.549615 1
0.819608 0.698116 0.549615 1
0.819608 0.698116 0.549615 1
0.819608 0.698116 0.549615 1
0.819608 0.698116 0.549615 1
0.819608 0.698116 0.549615 1
0.819608 0.698116 0.549615 1
0.819608 0.698116 0.549615 1
0.819608 0.698116 0.549615 1
0.819608 0.698116 0.549615 1
0.819608 0.698116 0.549615 1
0.819608 0.698116 0.549615 1
0.819608 0.698116 0.549615 1
0.819608 0.698116 0.549615 1
0.819608 0.698116 0.549615 1
0.819608 0.698116 0.549615 1
0.819608 0.698116 0.549615 1
0.819608 0.698116 0.549615 1
0.819608 0.698116 0.549615 1
0.819608 0.698116 0.549615 1
0.819608 0.698116 0.549615 1
0.819608 0.698116 0.549615 1
0.819608 0.698116 0.549615 1
0.819608 0.698116 0.549615 1
0.819608 0.698116 0.549615 1
0.819608 0.698116 0.549615 1
0.819608 0.698116 0.549615 1
0.819608 0.698116 0.549615 1
0.819608 0.698116 0.549615 1
0.819608 0.698116 0.549615 1
0.819608 0.698116 0.549615 1
0.819608 0.698116 0.549615 1
0.819608 0.698116 0.549615 1
0.819608 0.698116 0.549615 1
0.819608 0.698116 0.549615 1
0.819608 0.698116 0.549615 1
0.819608 0.698116 0.549615 1
0.819608 0.698116 0.549615 1
0.819608 0.698116 0.549615 1
0.819608 0.698116 0.549615 1
0.819608 0.698116 0.549615 1
0.819608 0.698116 0.549615 1
0.819608 0.698116 0.549615 1
0.819608 0.698116 0.549615 1
0.819608 0.698116 0.549615 1
0.819608 0.698116 0.549615 1
0.819608 0.698116 0.549615 1
0.819608 0.698116 0.549615 1
0.819608 0.698116 0.549615 1
0.819608 0.698116 0.549615 1
0.819608 0.698116 0.549615 1
0.819608 0.698116 0.549615 1
0.819608 0.698116 0.549615 1
0.819608 0.698116 0.549615 1
0.819608 0.698116 0.549615 1
0.819608 0.698116 0.549615 1
0.819608 0.698116 0.549615 1
0.819608 0.698116 0.549615 1
0.819608 0.698116 0.549615 1
0.819608 0.698116 0.549615 1
0.819608 0.698116 0.549615 1
0.819608 0.698116 0.549615 1
0.819608 0.698116 0.549615 1
0.819608 0.698116 0.549615 1
0.819608 0.698116 0.549615 1
0.819608 0.698116 0.549615 1
0.819608 0.698116 0.549615 1
0.819608 0.698116 0.549615 1
0.819608 0.698116 0.549615 1
0.819608 0.698116 0.549615 1
0.819608 0.698116 0.549615 1
0.819608 0.698116 0.549615 1
0.819608 0.698116 0.549615 1
0.819608 0.698116 0.549615 1
0.819608 0.698116 0.549615 1
0.819608 0.698116 0.549615 1
0.819608 0.698116 0.549615 1
0.819608 0.698116 0.549615 1
0.819608 0.698116 0.549615 1
0.819608 0.698116 0.549615 1
0.819608 0.698116 0.549615 1
0.819608 0.698116 0.549615 1
0.819608 0.698116 0.549615 1
0.819608 0.698116 0.549615 1
0.819608 0.698116 0.549615 1
0.819608 0.698116 0.549615 1
0.819608 0.698116 0.549615 1
0.819608 0.698116 0.549615 1
0.819608 0.698116 0.549615 1
0.819608 0.698116 0.549615 1
0.819608 0.698116 0.549615 1
0.819608 0.698116 0.549615 1
0.819608 0.698116 0.549615 1
0.819608 0.698116 0.549615 1
0.819608 0.698116 0.549615 1
0.819608 0.698116 0.549615 1
0.819608 0.698116 0.549615 1
0.819608 0.698116 0.549615 1
0.819608 0.698116 0.549615 1
0.819608 0.698116 0.549615 1
0.819608 0.698116 0.549615 1
0.819608 0.698116 0.549615 1
0.819608 0.698116 0.549615 1
0.819608 0.698116 0.549615 1
0.819608 0.698116 0.549615 1
0.819608 0.698116 0.549615 1
0.819608 0.698116 0.549615 1
0.819608 0.698116 0.549615 1
0.819608 0.698116 0.549615 1
0.819608 0.698116 0.549615 1
0.819608 0.698116 0.549615 1
0.819608 0.698116 0.549615 1
0.819608 0.698116 0.549615 1
0.819608 0.698116 0.549615 1
0.819608 0.698116 0.549615 1
0.819608 0.698116 0.549615 1
0.819608 0.698116 0.549615 1
0.819608 0.698116 0.549615 1
0.819608 0.698116 0.549615 1
0.819608 0.698116 0.549615 1
0.819608 0.698116 0.549615 1
0.819608 0.698116 0.549615 1
0.819608 0.698116 0.549615 1
0.819608 0.698116 0.549615 1
0.819608 0.698116 0.549615 1
0.819608 0.698116 0.549615 1
0.819608 0.698116 0.549615 1
0.819608 0.698116 0.549615 1
0.819608 0.698116 0.549615 1
0.819608 0.698116 0.549615 1
0.819608 0.698116 0.549615 1
0.819608 0.698116 0.549615 1
0.819608 0.698116 0.549615 1
0.819608 0.698116 0.549615 1
0.819608 0.698116 0.549615 1
0.819608 0.698116 0.549615 1
0.819608 0.698116 0.549615 1
0.819608 0.698116 0.549615 1
0.819608 0.698116 0.549615 1
0.819608 0.698116 0.549615 1
0.819608 0.698116 0.549615 1
0.819608 0.698116 0.549615 1
0.819608 0.698116 0.549615 1
0.819608 0.698116 0.549615 1
0.819608 0.698116 0.549615 1
0.819608 0.698116 0.549615 1
0.819608 0.698116 0.549615 1
0.819608 0.698116 0.549615 1
0.819608 0.698116 0.549615 1
0.819608 0.698116 0.549615 1
0.819608 0.698116 0.549615 1
0.819608 0.698116 0.549615 1
0.819608 0.698116 0.549615 1
0.819608 0.698116 0.549615 1
0.819608 0.698116 0.549615 1
0.819608 0.698116 0.549615 1
0.819608 0.698116 0.549615 1
0.819608 0.698116 0.549615 1
0.819608 0.698116 0.549615 1
0.819608 0.698116 0.549615 1
0.819608 0.698116 0.549615 1
0.819608 0.698116 0.549615 1
0.819608 0.698116 0.549615 1
0.819608 0.698116 0.549615 1
0.819608 0.698116 0.549615 1
0.819608 0.698116 0.549615 1
0.819608 0.698116 0.549615 1
0.819608 0.698116 0.549615 1
0.819608 0.698116 0.549615 1
0.819608 0.698116 0.549615 1
0.819608 0.698116 0.549615 1
0.819608 0.698116 0.549615 1
0.819608 0.698116 0.549615 1
0.819608 0.698116 0.549615 1
0.819608 0.698116 0.549615 1
0.819608 0.698116 0.549615 1
0.819608 0.698116 0.549615 1
0.819608 0.698116 0.549615 1
0.819608 0.698116 0.549615 1
0.819608 0.698116 0.549615 1
0.819608 0.698116 0.549615 1
0.819608 0.698116 0.549615 1
0.819608 0.698116 0.549615 1
0.819608 0.698116 0.549615 1
0.819608 0.698116 0.549615 1
0.819608 0.698116 0.549615 1
0.819608 0.698116 0.549615 1
0.819608 0.698116 0.549615 1
0.819608 0.698116 0.549615 1
0.819608 0.698116 0.549615 1
0.819608 0.698116 0.549615 1
0.819608 0.698116 0.549615 1
0.819608 0.698116 0.549615 1
0.819608 0.698116 0.549615 1
0.819608 0.698116 0.549615 1
0.819608 0.698116 0.549615 1
0.819608 0.698116 0.549615 1
0.819608 0.698116 0.549615 1
0.819608 0.698116 0.549615 1
0.819608 0.698116 0.549615 1
0.819608 0.698116 0.549615 1
0.819608 0.698116 0.549615 1
0.819608 0.698116 0.549615 1
0.819608 0.698116 0.549615 1
0.819608 0.698116 0.549615 1
0.819608 0.698116 0.549615 1
0.819608 0.698116 0.549615 1
0.819608 0.698116 0.549615 1
0.819608 0.698116 0.549615 1
0.819608 0.698116 0.549615 1
0.819608 0.698116 0.549615 1
0.819608 0.698116 0.549615 1
0.819608 0.698116 0.549615 1
0.819608 0.698116 0.549615 1
0.819608 0.698116 0.549615 1
0.819608 0.698116 0.549615 1
0.819608 0.698116 0.549615 1
0.819608 0.698116 0.549615 1
0.819608 0.698116 0.549615 1
0.819608 0.698116 0.549615 1
0.819608 0.698116 0.549615 1
0.819608 0.698116 0.549615 1
0.819608 0.698116 0.549615 1
0.819608 0.698116 0.549615 1
0.819608 0.698116 0.549615 1
0.819608 0.698116 0.549615 1
0.819608 0.698116 0.549615 1
0.819608 0.698116 0.549615 1
0.819608 0.698116 0.549615 1
0.819608 0.698116 0.549615 1
0.819608 0.698116 0.549615 1
0.819608 0.698116 0.549615 1
0.819608 0.698116 0.549615 1
0.819608 0.698116 0.549615 1
0.819608 0.698116 0.549615 1
0.819608 0.698116 0.549615 1
0.819608 0.698116 0.549615 1
0.819608 0.698116 0.549615 1
0.819608 0.698116 0.549615 1
0.819608 0.698116 0.549615 1
0.819608 0.698116 0.549615 1
0.819608 0.698116 0.549615 1
0.819608 0.698116 0.549615 1
0.819608 0.698116 0.549615 1
0.819608 0.698116 0.549615 1
0.819608 0.698116 0.549615 1
0.819608 0.698116 0.549615 1
0.819608 0.698116 0.549615 1
0.819608 0.698116 0.549615 1
0.819608 0.698116 0.549615 1
0.819608 0.698116 0.549615 1
0.819608 0.698116 0.549615 1
0.819608 0.698116 0.549615 1
0.819608 0.698116 0.549615 1
0.819608 0.698116 0.549615 1
0.819608 0.698116 0.549615 1
0.819608 0.698116 0.549615 1
0.819608 0.698116 0.549615 1
0.819608 0.698116 0.549615 1
0.819608 0.698116 0.549615 1
0.819608 0.698116 0.549615 1
0.819608 0.698116 0.549615 1
0.819608 0.698116 0.549615 1
0.819608 0.698116 0.549615 1
0.819608 0.698116 0.549615 1
0.819608 0.698116 0.549615 1
0.819608 0.698116 0.549615 1
0.819608 0.698116 0.549615 1
0.819608 0.698116 0.549615 1
0.819608 0.698116 0.549615 1
0.819608 0.698116 0.549615 1
0.819608 0.698116 0.549615 1
0.819608 0.698116 0.549615 1
0.819608 0.698116 0.549615 1
0.819608 0.698116 0.549615 1
0.819608 0.698116 0.549615 1
0.819608 0.698116 0.549615 1
0.819608 0.698116 0.549615 1
0.819608 0.698116 0.549615 1
0.819608 0.698116 0.549615 1
0.819608 0.698116 0.549615 1
0.819608 0.698116 0.549615 1
0.819608 0.698116 0.549615 1
0.819608 0.698116 0.549615 1
0.819608 0.698116 0.549615 1
0.819608 0.698116 0.549615 1
0.819608 0.698116 0.549615 1
0.819608 0.698116 0.549615 1
0.819608 0.698116 0.549615 1
0.819608 0.698116 0.549615 1
0.819608 0.698116 0.549615 1
0.819608 0.698116 0.549615 1
0.819608 0.698116 0.549615 1
0.819608 0.698116 0.549615 1
0.819608 0.698116 0.549615 1
0.819608 0.698116 0.549615 1
0.819608 0.698116 0.549615 1
0.819608 0.698116 0.549615 1
0.819608 0.698116 0.549615 1
0.819608 0.698116 0.549615 1
0.819608 0.698116 0.549615 1
0.819608 0.698116 0.549615 1
0.819608 0.698116 0.549615 1
0.819608 0.698116 0.549615 1
0.819608 0.698116 0.549615 1
0.819608 0.698116 0.549615 1
0.819608 0.698116 0.549615 1
0.819608 0.698116 0.549615 1
0.819608 0.698116 0.549615 1
0.819608 0.698116 0.549615 1
0.819608 0.698116 0.549615 1
0.819608 0.698116 0.549615 1
0.819608 0.698116 0.549615 1
0.819608 0.698116 0.549615 1
0.819608 0.698116 0.549615 1
0.819608 0.698116 0.549615 1
0.819608 0.698116 0.549615 1
0.819608 0.698116 0.549615 1
0.819608 0.698116 0.549615 1
0.819608 0.698116 0.549615 1
0.819608 0.698116 0.549615 1
0.819608 0.698116 0.549615 1
0.819608 0.698116 0.549615 1
0.819608 0.698116 0.549615 1
0.819608 0.698116 0.549615 1
0.819608 0.698116 0.549615 1
0.819608 0.698116 0.549615 1
0.819608 0.698116 0.549615 1
0.819608 0.698116 0.549615 1
0.819608 0.698116 0.549615 1
0.819608 0.698116 0.549615 1
0.819608 0.698116 0.549615 1
0.819608 0.698116 0.549615 1
0.819608 0.698116 0.549615 1
0.819608 0.698116 0.549615 1
0.819608 0.698116 0.549615 1
0.819608 0.698116 0.549615 1
0.819608 0.698116 0.549615 1
0.819608 0.698116 0.549615 1
0.819608 0.698116 0.549615 1
0.819608 0.698116 0.549615 1
0.819608 0.698116 0.549615 1
0.819608 0.698116 0.549615 1
0.819608 0.698116 0.549615 1
0.819608 0.698116 0.549615 1
0.819608 0.698116 0.549615 1
0.819608 0.698116 0.549615 1
0.819608 0.698116 0.549615 1
0.819608 0.698116 0.549615 1
0.819608 0.698116 0.549615 1
0.819608 0.698116 0.549615 1
0.819608 0.698116 0.549615 1
0.819608 0.698116 0.549615 1
0.819608 0.698116 0.549615 1
0.819608 0.698116 0.549615 1
0.819608 0.698116 0.549615 1
0.819608 0.698116 0.549615 1
0.819608 0.698116 0.549615 1
0.819608 0.698116 0.549615 1
0.819608 0.698116 0.549615 1
0.819608 0.698116 0.549615 1
0.819608 0.698116 0.549615 1
0.819608 0.698116 0.549615 1
0.819608 0.698116 0.549615 1
0.819608 0.698116 0.549615 1
0.819608 0.698116 0.549615 1
0.819608 0.698116 0.549615 1
0.819608 0.698116 0.549615 1
0.819608 0.698116 0.549615 1
0.819608 0.698116 0.549615 1
0.819608 0.698116 0.549615 1
0.819608 0.698116 0.549615 1
0.819608 0.698116 0.549615 1
0.819608 0.698116 0.549615 1
0.819608 0.698116 0.549615 1
0.819608 0.698116 0.549615 1
0.819608 0.698116 0.549615 1
0.819608 0.698116 0.549615 1
0.819608 0.698116 0.549615 1
0.819608 0.698116 0.549615 1
0.819608 0.698116 0.549615 1
0.819608 0.698116 0.549615 1
0.819608 0.698116 0.549615 1
0.819608 0.698116 0.549615 1
0.819608 0.698116 0.549615 1
0.819608 0.698116 0.549615 1
0.819608 0.698116 0.549615 1
0.819608 0.698116 0.549615 1
0.819608 0.698116 0.549615 1
0.819608 0.698116 0.549615 1
0.819608 0.698116 0.549615 1
0.819608 0.698116 0.549615 1
0.819608 0.698116 0.549615 1
0.819608 0.698116 0.549615 1
0.819608 0.698116 0.549615 1
0.819608 0.698116 0.549615 1
0.819608 0.698116 0.549615 1
0.819608 0.698116 0.549615 1
0.819608 0.698116 0.549615 1
0.819608 0.698116 0.549615 1
0.819608 0.698116 0.549615 1
0.819608 0.698116 0.549615 1
0.819608 0.698116 0.549615 1
0.819608 0.698116 0.549615 1
0.819608 0.698116 0.549615 1
0.819608 0.698116 0.549615 1
0.819608 0.698116 0.549615 1
0.819608 0.698116 0.549615 1
0.819608 0.698116 0.549615 1
0.819608 0.698116 0.549615 1
0.819608 0.698116 0.549615 1
0.819608 0.698116 0.549615 1
0.819608 0.698116 0.549615 1
0.819608 0.698116 0.549615 1
0.819608 0.698116 0.549615 1
0.819608 0.698116 0.549615 1
0.819608 0.698116 0.549615 1
0.819608 0.698116 0.549615 1
0.819608 0.698116 0.549615 1
0.819608 0.698116 0.549615 1
0.819608 0.698116 0.549615 1
0.819608 0.698116 0.549615 1
0.819608 0.698116 0.549615 1
0.819608 0.698116 0.549615 1
0.819608 0.698116 0.549615 1
0.819608 0.698116 0.549615 1
0.819608 0.698116 0.549615 1
0.819608 0.698116 0.549615 1
0.819608 0.698116 0.549615 1
0.819608 0.698116 0.549615 1
0.819608 0.698116 0.549615 1
0.819608 0.698116 0.549615 1
0.819608 0.698116 0.549615 1
0.819608 0.698116 0.549615 1
0.819608 0.698116 0.549615 1
0.819608 0.698116 0.549615 1
0.819608 0.698116 0.549615 1
0.819608 0.698116 0.549615 1
0.819608 0.698116 0.549615 1
0.819608 0.698116 0.549615 1
0.819608 0.698116 0.549615 1
0.819608 0.698116 0.549615 1
0.819608 0.698116 0.549615 1
0.819608 0.698116 0.549615 1
0.819608 0.698116 0.549615 1
0.819608 0.698116 0.549615 1
0.819608 0.698116 0.549615 1
0.819608 0.698116 0.549615 1
0.819608 0.698116 0.549615 1
0.819608 0.698116 0.549615 1
0.819608 0.698116 0.549615 1
0.819608 0.698116 0.549615 1
0.819608 0.698116 0.549615 1
0.819608 0.698116 0.549615 1
0.819608 0.698116 0.549615 1
0.819608 0.698116 0.549615 1
0.819608 0.698116 0.549615 1
0.819608 0.698116 0.549615 1
0.819608 0.698116 0.549615 1
0.819608 0.698116 0.549615 1
0.819608 0.698116 0.549615 1
0.819608 0.698116 0.549615 1
0.819608 0.698116 0.549615 1
0.819608 0.698116 0.549615 1
0.819608 0.698116 0.549615 1
0.819608 0.698116 0.549615 1
0.819608 0.698116 0.549615 1
0.819608 0.698116 0.549615 1
0.819608 0.698116 0.549615 1
0.819608 0.698116 0.549615 1
0.819608 0.698116 0.549615 1
0.819608 0.698116 0.549615 1
0.819608 0.698116 0.549615 1
0.819608 0.698116 0.549615 1
0.819608 0.698116 0.549615 1
0.819608 0.698116 0.549615 1
0.819608 0.698116 0.549615 1
0.819608 0.698116 0.549615 1
0.819608 0.698116 0.549615 1
0.819608 0.698116 0.549615 1
0.819608 0.698116 0.549615 1
0.819608 0.698116 0.549615 1
0.819608 0.698116 0.549615 1
0.819608 0.698116 0.549615 1
0.819608 0.698116 0.549615 1
0.819608 0.698116 0.549615 1
0.819608 0.698116 0.549615 1
0.819608 0.698116 0.549615 1
0.819608 0.698116 0.549615 1
0.819608 0.698116 0.549615 1
0.819608 0.698116 0.549615 1
0.819608 0.698116 0.549615 1
0.819608 0.698116 0.549615 1
0.819608 0.698116 0.549615 1
0.819608 0.698116 0.549615 1
0.819608 0.698116 0.549615 1
0.819608 0.698116 0.549615 1
0.819608 0.698116 0.549615 1
0.819608 0.698116 0.549615 1
0.819608 0.698116 0.549615 1
0.819608 0.698116 0.549615 1
0.819608 0.698116 0.549615 1
0.819608 0.698116 0.549615 1
0.819608 0.698116 0.549615 1
0.819608 0.698116 0.549615 1
0.819608 0.698116 0.549615 1
0.819608 0.698116 0.549615 1
0.819608 0.698116 0.549615 1
0.819608 0.698116 0.549615 1
0.819608 0.698116 0.549615 1
0.819608 0.698116 0.549615 1
0.819608 0.698116 0.549615 1
0.819608 0.698116 0.549615 1
0.819608 0.698116 0.549615 1
0.819608 0.698116 0.549615 1
0.819608 0.698116 0.549615 1
0.819608 0.698116 0.549615 1
0.819608 0.698116 0.549615 1
0.819608 0.698116 0.549615 1
0.819608 0.698116 0.549615 1
0.819608 0.698116 0.549615 1
0.819608 0.698116 0.549615 1
0.819608 0.698116 0.549615 1
0.819608 0.698116 0.549615 1
0.819608 0.698116 0.549615 1
0.819608 0.698116 0.549615 1
0.819608 0.698116 0.549615 1
0.819608 0.698116 0.549615 1
0.819608 0.698116 0.549615 1
0.819608 0.698116 0.549615 1
0.819608 0.698116 0.549615 1
0.819608 0.698116 0.549615 1
0.819608 0.698116 0.549615 1
0.819608 0.698116 0.549615 1
0.819608 0.698116 0.549615 1
0.819608 0.698116 0.549615 1
0.819608 0.698116 0.549615 1
0.819608 0.698116 0.549615 1
0.819608 0.698116 0.549615 1
0.819608 0.698116 0.549615 1
0.819608 0.698116 0.549615 1
0.819608 0.698116 0.549615 1
0.819608 0.698116 0.549615 1
0.819608 0.698116 0.549615 1
0.819608 0.698116 0.549615 1
0.819608 0.698116 0.549615 1
0.819608 0.698116 0.549615 1
0.819608 0.698116 0.549615 1
0.819608 0.698116 0.549615 1
0.819608 0.698116 0.549615 1
0.819608 0.698116 0.549615 1
0.819608 0.698116 0.549615 1
0.819608 0.698116 0.549615 1
0.819608 0.698116 0.549615 1
0.819608 0.698116 0.549615 1
0.819608 0.698116 0.549615 1
0.819608 0.698116 0.549615 1
0.819608 0.698116 0.549615 1
0.819608 0.698116 0.549615 1
0.819608 0.698116 0.549615 1
0.819608 0.698116 0.549615 1
0.819608 0.698116 0.549615 1
0.819608 0.698116 0.549615 1
0.819608 0.698116 0.549615 1
0.819608 0.698116 0.549615 1
0.819608 0.698116 0.549615 1
0.819608 0.698116 0.549615 1
0.819608 0.698116 0.549615 1
0.819608 0.698116 0.549615 1
0.819608 0.698116 0.549615 1
0.819608 0.698116 0.549615 1
0.819608 0.698116 0.549615 1
0.819608 0.698116 0.549615 1
0.819608 0.698116 0.549615 1
0.819608 0.698116 0.549615 1
0.819608 0.698116 0.549615 1
0.819608 0.698116 0.549615 1
0.819608 0.698116 0.549615 1
0.819608 0.698116 0.549615 1
0.819608 0.698116 0.549615 1
0.819608 0.698116 0.549615 1
0.819608 0.698116 0.549615 1
0.819608 0.698116 0.549615 1
0.819608 0.698116 0.549615 1
0.819608 0.698116 0.549615 1
0.819608 0.698116 0.549615 1
0.819608 0.698116 0.549615 1
0.819608 0.698116 0.549615 1
0.819608 0.698116 0.549615 1
0.819608 0.698116 0.549615 1
0.819608 0.698116 0.549615 1
0.819608 0.698116 0.549615 1
0.819608 0.698116 0.549615 1
0.819608 0.698116 0.549615 1
0.819608 0.698116 0.549615 1
0.819608 0.698116 0.549615 1
0.819608 0.698116 0.549615 1

