# vtk DataFile Version 3.0
Gocad TSurf to VTK
ASCII
DATASET POLYDATA
POINTS 698 float
21567800.000 4575075.000 -2520.000
21567675.000 4575310.000 -2481.250
21567500.000 4575110.000 -2495.000
21567375.000 4575670.000 -2481.250
21568000.000 4574350.000 -2415.000
21567850.000 4575510.000 -2467.500
21567650.000 4575750.000 -2467.500
21568100.000 4575040.000 -2545.000
21568025.000 4575710.000 -2453.750
21568175.000 4574505.000 -2460.000
21568350.000 4574660.000 -2505.000
21568275.000 4574317.500 -2480.000
21568400.000 4575005.000 -2570.000
21568525.000 4574815.000 -2550.000
21568200.000 4575910.000 -2440.000
21567925.000 4575830.000 -2453.750
21568700.000 4574970.000 -2595.000
21568500.000 4575872.500 -2492.500
21568825.000 4574252.500 -2610.000
21568550.000 4574285.000 -2545.000
21569100.000 4574220.000 -2675.000
21568950.000 4574892.500 -2625.000
21568925.000 4574092.500 -2578.750
21568750.000 4573965.000 -2482.500
21569225.000 4573612.500 -2548.750
21568950.000 4573645.000 -2462.500
21569500.000 4573580.000 -2635.000
21569325.000 4574137.500 -2661.250
21569325.000 4573480.000 -2507.500
21569150.000 4573380.000 -2380.000
21569325.000 4573480.000 -2507.500
21569150.000 4573380.000 -2380.000
21568975.000 4573280.000 -2252.500
21568975.000 4573280.000 -2252.500
21568800.000 4573180.000 -2125.000
21568675.000 4573677.500 -2376.250
21568400.000 4573710.000 -2290.000
21568575.000 4573837.500 -2386.250
21567750.000 4574040.000 -2397.500
21567550.000 4574175.000 -2403.750
21568050.000 4573560.000 -2303.750
21567500.000 4573730.000 -2380.000
21568225.000 4573450.000 -2293.750
21568050.000 4573190.000 -2297.500
21568525.000 4573052.500 -2170.000
21568525.000 4573052.500 -2170.000
21568250.000 4572925.000 -2215.000
21568250.000 4572925.000 -2215.000
21567975.000 4572797.500 -2260.000
21567975.000 4572797.500 -2260.000
21567875.000 4572930.000 -2301.250
21567700.000 4572670.000 -2305.000
21567350.000 4573260.000 -2331.250
21567000.000 4573110.000 -2345.000
21567700.000 4573410.000 -2317.500
21567250.000 4573420.000 -2362.500
21566650.000 4573825.000 -2381.250
21566200.000 4573650.000 -2370.000
21567100.000 4574000.000 -2392.500
21566525.000 4574015.000 -2401.250
21566850.000 4574380.000 -2432.500
21566425.000 4574135.000 -2401.250
21565500.000 4574200.000 -2260.000
21566650.000 4574620.000 -2432.500
21567175.000 4574745.000 -2463.750
21565900.000 4574547.500 -2318.750
21566300.000 4574895.000 -2377.500
21565825.000 4574657.500 -2295.000
21566875.000 4575105.000 -2463.750
21566700.000 4575242.500 -2436.250
21566150.000 4575115.000 -2330.000
21567100.000 4575590.000 -2495.000
21566475.000 4575572.500 -2365.000
21567275.000 4575865.000 -2433.750
21566800.000 4576030.000 -2400.000
21567450.000 4576140.000 -2372.500
21567050.000 4576195.000 -2362.500
21567300.000 4576360.000 -2325.000
21567150.000 4576575.000 -2235.000
21567625.000 4576415.000 -2311.250
21567550.000 4576525.000 -2287.500
21567475.000 4576632.500 -2242.500
21567800.000 4576690.000 -2250.000
21568100.000 4576722.500 -2297.500
21568400.000 4576137.500 -2440.000
21568050.000 4576885.000 -2332.500
21567750.000 4577402.500 -2257.500
21568400.000 4576755.000 -2345.000
21568300.000 4577080.000 -2415.000
21568600.000 4576365.000 -2440.000
21568700.000 4576045.000 -2467.500
21568700.000 4576787.500 -2392.500
21568800.000 4576592.500 -2440.000
21568550.000 4577275.000 -2497.500
21569000.000 4576820.000 -2440.000
21568450.000 4577447.500 -2472.500
21568800.000 4577470.000 -2580.000
21568100.000 4577425.000 -2365.000
21568300.000 4577905.000 -2491.250
21568600.000 4578080.000 -2605.000
21568000.000 4577730.000 -2377.500
21568225.000 4578050.000 -2485.000
21567700.000 4577555.000 -2263.750
21567850.000 4578020.000 -2365.000
21567400.000 4577380.000 -2150.000
21567475.000 4577990.000 -2245.000
21567175.000 4577150.000 -2167.500
21567100.000 4577270.000 -2118.750
21566950.000 4576920.000 -2185.000
21566800.000 4577160.000 -2087.500
21566825.000 4576517.500 -2227.500
21566725.000 4576690.000 -2202.500
21566500.000 4576460.000 -2220.000
21566250.000 4575895.000 -2230.000
21566200.000 4576940.000 -2025.000
21566500.000 4577050.000 -2056.250
21565800.000 4576405.000 -2028.750
21565650.000 4576507.500 -2005.000
21566025.000 4576045.000 -2175.000
21565400.000 4575870.000 -2032.500
21566000.000 4575330.000 -2240.000
21565550.000 4575630.000 -2130.000
21565750.000 4574765.000 -2250.000
21565075.000 4575215.000 -2085.000
21564600.000 4574800.000 -2040.000
21565000.000 4575335.000 -2036.250
21564550.000 4575642.500 -1965.000
21564000.000 4575210.000 -1945.000
21565100.000 4576075.000 -1985.000
21564475.000 4575757.500 -1937.500
21564950.000 4576305.000 -1930.000
21564175.000 4575967.500 -1956.250
21563600.000 4575490.000 -1970.000
21564750.000 4576445.000 -1942.500
21564075.000 4576092.500 -1970.000
21564550.000 4576695.000 -1970.000
21565325.000 4576922.500 -1928.750
21565025.000 4577297.500 -1970.000
21565425.000 4576852.500 -1922.500
21565900.000 4577400.000 -1915.000
21566425.000 4577195.000 -2050.000
21566200.000 4577540.000 -1967.500
21566125.000 4577705.000 -1991.250
21566650.000 4577450.000 -2075.000
21566500.000 4577680.000 -2020.000
21566875.000 4577705.000 -2100.000
21566800.000 4577820.000 -2072.500
21566350.000 4578010.000 -2067.500
21567100.000 4577960.000 -2125.000
21566575.000 4578315.000 -2143.750
21567375.000 4578262.500 -2256.250
21566800.000 4578620.000 -2220.000
21567650.000 4578565.000 -2387.500
21567150.000 4578757.500 -2327.500
21567500.000 4578895.000 -2435.000
21567400.000 4579105.000 -2525.000
21567925.000 4578867.500 -2518.750
21567850.000 4579032.500 -2542.500
21567800.000 4579137.500 -2587.500
21568200.000 4579170.000 -2650.000
21568375.000 4579082.500 -2552.500
21568675.000 4578265.000 -2518.750
21568350.000 4579147.500 -2556.250
21568500.000 4579125.000 -2462.500
21568325.000 4579225.000 -2542.500
21568450.000 4579280.000 -2435.000
21568025.000 4580117.500 -2542.500
21568250.000 4579875.000 -2435.000
21567800.000 4580360.000 -2650.000
21567950.000 4580447.500 -2490.000
21567500.000 4580030.000 -2587.500
21567400.000 4580210.000 -2615.000
21567200.000 4579700.000 -2525.000
21567000.000 4580060.000 -2580.000
21566900.000 4579370.000 -2462.500
21566600.000 4579910.000 -2545.000
21567000.000 4579072.500 -2462.500
21566600.000 4579040.000 -2400.000
21566325.000 4578755.000 -2292.500
21566025.000 4579295.000 -2375.000
21566475.000 4578440.000 -2157.500
21566050.000 4578470.000 -2185.000
21566150.000 4578260.000 -2095.000
21565825.000 4578080.000 -2032.500
21565775.000 4578185.000 -2077.500
21565500.000 4577900.000 -1970.000
21565675.000 4578365.000 -2105.000
21565850.000 4578830.000 -2240.000
21566200.000 4579760.000 -2510.000
21566575.000 4580020.000 -2527.500
21566575.000 4580020.000 -2527.500
21566950.000 4580280.000 -2545.000
21566950.000 4580280.000 -2545.000
21567325.000 4580540.000 -2562.500
21566575.000 4580020.000 -2531.250
21566950.000 4580280.000 -2552.500
21567325.000 4580540.000 -2573.750
21567700.000 4580800.000 -2580.000
21567700.000 4580800.000 -2595.000
21567325.000 4580540.000 -2562.500
21567950.000 4580447.500 -2490.000
21568200.000 4580095.000 -2400.000
21567950.000 4580447.500 -2501.250
21568200.000 4580095.000 -2407.500
21568200.000 4580095.000 -2400.000
21568450.000 4579742.500 -2313.750
21568450.000 4579742.500 -2310.000
21568450.000 4579742.500 -2310.000
21568700.000 4579390.000 -2220.000
21568475.000 4579632.500 -2327.500
21568575.000 4579335.000 -2327.500
21568650.000 4579102.500 -2368.750
21568800.000 4579080.000 -2275.000
21568725.000 4578907.500 -2357.500
21568900.000 4579197.500 -2116.250
21568975.000 4578965.000 -2157.500
21568900.000 4578820.000 -2260.000
21569100.000 4579005.000 -2012.500
21569150.000 4578850.000 -2040.000
21569050.000 4578770.000 -2146.250
21569300.000 4578812.500 -1908.750
21569325.000 4578735.000 -1922.500
21569200.000 4578720.000 -2032.500
21569500.000 4578620.000 -1805.000
21569350.000 4578670.000 -1918.750
21569400.000 4578565.000 -1885.000
21569300.000 4578510.000 -1965.000
21569550.000 4578100.000 -1960.000
21569400.000 4578200.000 -2015.000
21569700.000 4578000.000 -1905.000
21569600.000 4577965.000 -1935.000
21569700.000 4578450.000 -1805.000
21569850.000 4577985.000 -1880.000
21570000.000 4577550.000 -1891.250
21569900.000 4578280.000 -1805.000
21570000.000 4577970.000 -1855.000
21570100.000 4577680.000 -1862.500
21570100.000 4578110.000 -1805.000
21570150.000 4577955.000 -1830.000
21570200.000 4577810.000 -1833.750
21570300.000 4577940.000 -1805.000
21570500.000 4577410.000 -1890.000
21570350.000 4577412.500 -1897.500
21570500.000 4577740.000 -1873.750
21570650.000 4577342.500 -1937.500
21570600.000 4576990.000 -1845.000
21570700.000 4577540.000 -1942.500
21570800.000 4577275.000 -1985.000
21570725.000 4577027.500 -1903.750
21570900.000 4577340.000 -2011.250
21570950.000 4577207.500 -2032.500
21570850.000 4577065.000 -1962.500
21571100.000 4577140.000 -2080.000
21570975.000 4577102.500 -2021.250
21571050.000 4576757.500 -2096.250
21570900.000 4576835.000 -2012.500
21571200.000 4576680.000 -2180.000
21571075.000 4576605.000 -2062.500
21570950.000 4576530.000 -1945.000
21571200.000 4576220.000 -2150.000
21571075.000 4576260.000 -2040.000
21571125.000 4576110.000 -2001.250
21570950.000 4576300.000 -1930.000
21571300.000 4575720.000 -2040.000
21571200.000 4575735.000 -1918.750
21571050.000 4576000.000 -1852.500
21571200.000 4575675.000 -1918.750
21571100.000 4575750.000 -1797.500
21571250.000 4575570.000 -1936.250
21571100.000 4575630.000 -1797.500
21571200.000 4575420.000 -1832.500
21571000.000 4575765.000 -1676.250
21571000.000 4575585.000 -1676.250
21570975.000 4575890.000 -1703.750
21570900.000 4575780.000 -1555.000
21570825.000 4576340.000 -1820.000
21570700.000 4576380.000 -1710.000
21570825.000 4576455.000 -1827.500
21570750.000 4576912.500 -1928.750
21570525.000 4576835.000 -1842.500
21570475.000 4576970.000 -1863.750
21570600.000 4576377.500 -1741.250
21570450.000 4576680.000 -1840.000
[...]
POINT_DATA 698
COLOR_SCALARS GocadColor 4
1 0.498039 0.313726 1
1 0.498039 0.313726 1
1 0.498039 0.313726 1
1 0.498039 0.313726 1
1 0.498039 0.313726 1
1 0.498039 0.313726 1
1 0.498039 0.313726 1
1 0.498039 0.313726 1
1 0.498039 0.313726 1
1 0.498039 0.313726 1
1 0.498039 0.313726 1
1 0.498039 0.313726 1
1 0.498039 0.313726 1
1 0.498039 0.313726 1
1 0.498039 0.313726 1
1 0.498039 0.313726 1
1 0.498039 0.313726 1
1 0.498039 0.313726 1
1 0.498039 0.313726 1
1 0.498039 0.313726 1
1 0.498039 0.313726 1
1 0.498039 0.313726 1
1 0.498039 0.313726 1
1 0.498039 0.313726 1
1 0.498039 0.313726 1
1 0.498039 0.313726 1
1 0.498039 0.313726 1
1 0.498039 0.313726 1
1 0.498039 0.313726 1
1 0.498039 0.313726 1
1 0.498039 0.313726 1
1 0.498039 0.313726 1
1 0.498039 0.313726 1
1 0.498039 0.313726 1
1 0.498039 0.313726 1
1 0.498039 0.313726 1
1 0.498039 0.313726 1
1 0.498039 0.313726 1
1 0.498039 0.313726 1
1 0.498039 0.313726 1
1 0.498039 0.313726 1
1 0.498039 0.313726 1
1 0.498039 0.313726 1
1 0.498039 0.313726 1
1 0.498039 0.313726 1
1 0.498039 0.313726 1
1 0.498039 0.313726 1
1 0.498039 0.313726 1
1 0.498039 0.313726 1
1 0.498039 0.313726 1
1 0.498039 0.313726 1
1 0.498039 0.313726 1
1 0.498039 0.313726 1
1 0.498039 0.313726 1
1 0.498039 0.313726 1
1 0.498039 0.313726 1
1 0.498039 0.313726 1
1 0.498039 0.313726 1
1 0.498039 0.313726 1
1 0.498039 0.313726 1
1 0.498039 0.313726 1
1 0.498039 0.313726 1
1 0.498039 0.313726 1
1 0.498039 0.313726 1
1 0.498039 0.313726 1
1 0.498039 0.313726 1
1 0.498039 0.313726 1
1 0.498039 0.313726 1
1 0.498039 0.313726 1
1 0.498039 0.313726 1
1 0.498039 0.313726 1
1 0.498039 0.313726 1
1 0.498039 0.313726 1
1 0.498039 0.313726 1
1 0.498039 0.313726 1
1 0.498039 0.313726 1
1 0.498039 0.313726 1
1 0.498039 0.313726 1
1 0.498039 0.313726 1
1 0.498039 0.313726 1
1 0.498039 0.313726 1
1 0.498039 0.313726 1
1 0.498039 0.313726 1
1 0.498039 0.313726 1
1 0.498039 0.313726 1
1 0.498039 0.313726 1
1 0.498039 0.313726 1
1 0.498039 0.313726 1
1 0.498039 0.313726 1
1 0.498039 0.313726 1
1 0.498039 0.313726 1
1 0.498039 0.313726 1
1 0.498039 0.313726 1
1 0.498039 0.313726 1
1 0.498039 0.313726 1
1 0.498039 0.313726 1
1 0.498039 0.313726 1
1 0.498039 0.313726 1
1 0.498039 0.313726 1
1 0.498039 0.313726 1
1 0.498039 0.313726 1
1 0.498039 0.313726 1
1 0.498039 0.313726 1
1 0.498039 0.313726 1
1 0.498039 0.313726 1
1 0.498039 0.313726 1
1 0.498039 0.313726 1
1 0.498039 0.313726 1
1 0.498039 0.313726 1
1 0.498039 0.313726 1
1 0.498039 0.313726 1
1 0.498039 0.313726 1
1 0.498039 0.313726 1
1 0.498039 0.313726 1
1 0.498039 0.313726 1
1 0.498039 0.313726 1
1 0.498039 0.313726 1
1 0.498039 0.313726 1
1 0.498039 0.313726 1
1 0.498039 0.313726 1
1 0.498039 0.313726 1
1 0.498039 0.313726 1
1 0.498039 0.313726 1
1 0.498039 0.313726 1
1 0.498039 0.313726 1
1 0.498039 0.313726 1
1 0.498039 0.313726 1
1 0.498039 0.313726 1
1 0.498039 0.313726 1
1 0.498039 0.313726 1
1 0.498039 0.313726 1
1 0.498039 0.313726 1
1 0.498039 0.313726 1
1 0.498039 0.313726 1
1 0.498039 0.313726 1
1 0.498039 0.313726 1
1 0.498039 0.313726 1
1 0.498039 0.313726 1
1 0.498039 0.313726 1
1 0.498039 0.313726 1
1 0.498039 0.313726 1
1 0.498039 0.313726 1
1 0.498039 0.313726 1
1 0.498039 0.313726 1
1 0.498039 0.313726 1
1 0.498039 0.313726 1
1 0.498039 0.313726 1
1 0.498039 0.313726 1
1 0.498039 0.313726 1
1 0.498039 0.313726 1
1 0.498039 0.313726 1
1 0.498039 0.313726 1
1 0.498039 0.313726 1
1 0.498039 0.313726 1
1 0.498039 0.313726 1
1 0.498039 0.313726 1
1 0.498039 0.313726 1
1 0.498039 0.313726 1
1 0.498039 0.313726 1
1 0.498039 0.313726 1
1 0.498039 0.313726 1
1 0.498039 0.313726 1
1 0.498039 0.313726 1
1 0.498039 0.313726 1
1 0.498039 0.313726 1
1 0.498039 0.313726 1
1 0.498039 0.313726 1
1 0.498039 0.313726 1
1 0.498039 0.313726 1
1 0.498039 0.313726 1
1 0.498039 0.313726 1
1 0.498039 0.313726 1
1 0.498039 0.313726 1
1 0.498039 0.313726 1
1 0.498039 0.313726 1
1 0.498039 0.313726 1
1 0.498039 0.313726 1
1 0.498039 0.313726 1
1 0.498039 0.313726 1
1 0.498039 0.313726 1
1 0.498039 0.313726 1
1 0.498039 0.313726 1
1 0.498039 0.313726 1
1 0.498039 0.313726 1
1 0.498039 0.313726 1
1 0.498039 0.313726 1
1 0.498039 0.313726 1
1 0.498039 0.313726 1
1 0.498039 0.313726 1
1 0.498039 0.313726 1
1 0.498039 0.313726 1
1 0.498039 0.313726 1
1 0.498039 0.313726 1
1 0.498039 0.313726 1
1 0.498039 0.313726 1
1 0.498039 0.313726 1
1 0.498039 0.313726 1
1 0.498039 0.313726 1
1 0.498039 0.313726 1
1 0.498039 0.313726 1
1 0.498039 0.313726 1
1 0.498039 0.313726 1
1 0.498039 0.313726 1
1 0.498039 0.313726 1
1 0.498039 0.313726 1
1 0.498039 0.313726 1
1 0.498039 0.313726 1
1 0.498039 0.313726 1
1 0.498039 0.313726 1
1 0.498039 0.313726 1
1 0.498039 0.313726 1
1 0.498039 0.313726 1
1 0.498039 0.313726 1
1 0.498039 0.313726 1
1 0.498039 0.313726 1
1 0.498039 0.313726 1
1 0.498039 0.313726 1
1 0.498039 0.313726 1
1 0.498039 0.313726 1
1 0.498039 0.313726 1
1 0.498039 0.313726 1
1 0.498039 0.313726 1
1 0.498039 0.313726 1
1 0.498039 0.313726 1
1 0.498039 0.313726 1
1 0.498039 0.313726 1
1 0.498039 0.313726 1
1 0.498039 0.313726 1
1 0.498039 0.313726 1
1 0.498039 0.313726 1
1 0.498039 0.313726 1
1 0.498039 0.313726 1
1 0.498039 0.313726 1
1 0.498039 0.313726 1
1 0.498039 0.313726 1
1 0.498039 0.313726 1
1 0.498039 0.313726 1
1 0.498039 0.313726 1
1 0.498039 0.313726 1
1 0.498039 0.313726 1
1 0.498039 0.313726 1
1 0.498039 0.313726 1
1 0.498039 0.313726 1
1 0.498039 0.313726 1
1 0.498039 0.313726 1
1 0.498039 0.313726 1
1 0.498039 0.313726 1
1 0.498039 0.313726 1
1 0.498039 0.313726 1
1 0.498039 0.313726 1
1 0.498039 0.313726 1
1 0.498039 0.313726 1
1 0.498039 0.313726 1
1 0.498039 0.313726 1
1 0.498039 0.313726 1
1 0.498039 0.313726 1
1 0.498039 0.313726 1
1 0.498039 0.313726 1
1 0.498039 0.313726 1
1 0.498039 0.313726 1
1 0.498039 0.313726 1
1 0.498039 0.313726 1
1 0.498039 0.313726 1
1 0.498039 0.313726 1
1 0.498039 0.313726 1
1 0.498039 0.313726 1
1 0.498039 0.313726 1
1 0.498039 0.313726 1
1 0.498039 0.313726 1
1 0.498039 0.313726 1
1 0.498039 0.313726 1
1 0.498039 0.313726 1
1 0.498039 0.313726 1
1 0.498039 0.313726 1
1 0.498039 0.313726 1
1 0.498039 0.313726 1
1 0.498039 0.313726 1
1 0.498039 0.313726 1
1 0.498039 0.313726 1
1 0.498039 0.313726 1
1 0.498039 0.313726 1
1 0.498039 0.313726 1
1 0.498039 0.313726 1
1 0.498039 0.313726 1
1 0.498039 0.313726 1
1 0.498039 0.313726 1
1 0.498039 0.313726 1
1 0.498039 0.313726 1
1 0.498039 0.313726 1
1 0.498039 0.313726 1
1 0.498039 0.313726 1
1 0.498039 0.313726 1
1 0.498039 0.313726 1
1 0.498039 0.313726 1
1 0.498039 0.313726 1
1 0.498039 0.313726 1
1 0.498039 0.313726 1
1 0.498039 0.313726 1
1 0.498039 0.313726 1
1 0.498039 0.313726 1
1 0.498039 0.313726 1
1 0.498039 0.313726 1
1 0.498039 0.313726 1
1 0.498039 0.313726 1
1 0.498039 0.313726 1
1 0.498039 0.313726 1
1 0.498039 0.313726 1
1 0.498039 0.313726 1
1 0.498039 0.313726 1
1 0.498039 0.313726 1
1 0.498039 0.313726 1
1 0.498039 0.313726 1
1 0.498039 0.313726 1
1 0.498039 0.313726 1
1 0.498039 0.313726 1
1 0.498039 0.313726 1
1 0.498039 0.313726 1
1 0.498039 0.313726 1
1 0.498039 0.313726 1
1 0.498039 0.313726 1
1 0.498039 0.313726 1
1 0.498039 0.313726 1
1 0.498039 0.313726 1
1 0.498039 0.313726 1
1 0.498039 0.313726 1
1 0.498039 0.313726 1
1 0.498039 0.313726 1
1 0.498039 0.313726 1
1 0.498039 0.313726 1
1 0.498039 0.313726 1
1 0.498039 0.313726 1
1 0.498039 0.313726 1
1 0.498039 0.313726 1
1 0.498039 0.313726 1
1 0.498039 0.313726 1
1 0.498039 0.313726 1
1 0.498039 0.313726 1
1 0.498039 0.313726 1
1 0.498039 0.313726 1
1 0.498039 0.313726 1
1 0.498039 0.313726 1
1 0.498039 0.313726 1
1 0.498039 0.313726 1
1 0.498039 0.313726 1
1 0.498039 0.313726 1
1 0.498039 0.313726 1
1 0.498039 0.313726 1
1 0.498039 0.313726 1
1 0.498039 0.313726 1
1 0.498039 0.313726 1
1 0.498039 0.313726 1
1 0.498039 0.313726 1
1 0.498039 0.313726 1
1 0.498039 0.313726 1
1 0.498039 0.313726 1
1 0.498039 0.313726 1
1 0.498039 0.313726 1
1 0.498039 0.313726 1
1 0.498039 0.313726 1
1 0.498039 0.313726 1
1 0.498039 0.313726 1
1 0.498039 0.313726 1
1 0.498039 0.313726 1
1 0.498039 0.313726 1
1 0.498039 0.313726 1
1 0.498039 0.313726 1
1 0.498039 0.313726 1
1 0.498039 0.313726 1
1 0.498039 0.313726 1
1 0.498039 0.313726 1
1 0.498039 0.313726 1
1 0.498039 0.313726 1
1 0.498039 0.313726 1
1 0.498039 0.313726 1
1 0.498039 0.313726 1
1 0.498039 0.313726 1
1 0.498039 0.313726 1
1 0.498039 0.313726 1
1 0.498039 0.313726 1
1 0.498039 0.313726 1
1 0.498039 0.313726 1
1 0.498039 0.313726 1
1 0.498039 0.313726 1
1 0.498039 0.313726 1
1 0.498039 0.313726 1
1 0.498039 0.313726 1
1 0.498039 0.313726 1
1 0.498039 0.313726 1
1 0.498039 0.313726 1
1 0.498039 0.313726 1
1 0.498039 0.313726 1
1 0.498039 0.313726 1
1 0.498039 0.313726 1
1 0.498039 0.313726 1
1 0.498039 0.313726 1
1 0.498039 0.313726 1
1 0.498039 0.313726 1
1 0.498039 0.313726 1
1 0.498039 0.313726 1
1 0.498039 0.313726 1
1 0.498039 0.313726 1
1 0.498039 0.313726 1
1 0.498039 0.313726 1
1 0.498039 0.313726 1
1 0.498039 0.313726 1
1 0.498039 0.313726 1
1 0.498039 0.313726 1
1 0.498039 0.313726 1
1 0.498039 0.313726 1
1 0.498039 0.313726 1
1 0.498039 0.313726 1
1 0.498039 0.313726 1
1 0.498039 0.313726 1
1 0.498039 0.313726 1
1 0.498039 0.313726 1
1 0.498039 0.313726 1
1 0.498039 0.313726 1
1 0.498039 0.313726 1
1 0.498039 0.313726 1
1 0.498039 0.313726 1
1 0.498039 0.313726 1
1 0.498039 0.313726 1
1 0.498039 0.313726 1
1 0.498039 0.313726 1
1 0.498039 0.313726 1
1 0.498039 0.313726 1
1 0.498039 0.313726 1
1 0.498039 0.313726 1
1 0.498039 0.313726 1
1 0.498039 0.313726 1
1 0.498039 0.313726 1
1 0.498039 0.313726 1
1 0.498039 0.313726 1
1 0.498039 0.313726 1
1 0.498039 0.313726 1
1 0.498039 0.313726 1
1 0.498039 0.313726 1
1 0.498039 0.313726 1
1 0.498039 0.313726 1
1 0.498039 0.313726 1
1 0.498039 0.313726 1
1 0.498039 0.313726 1
1 0.498039 0.313726 1
1 0.498039 0.313726 1
1 0.498039 0.313726 1
1 0.498039 0.313726 1
1 0.498039 0.313726 1
1 0.498039 0.313726 1
1 0.498039 0.313726 1
1 0.498039 0.313726 1
1 0.498039 0.313726 1
1 0.498039 0.313726 1
1 0.498039 0.313726 1
1 0.498039 0.313726 1
1 0.498039 0.313726 1
1 0.498039 0.313726 1
1 0.498039 0.313726 1
1 0.498039 0.313726 1
1 0.498039 0.313726 1
1 0.498039 0.313726 1
1 0.498039 0.313726 1
1 0.498039 0.313726 1
1 0.498039 0.313726 1
1 0.498039 0.313726 1
1 0.498039 0.313726 1
1 0.498039 0.313726 1
1 0.498039 0.313726 1
1 0.498039 0.313726 1
1 0.498039 0.313726 1
1 0.498039 0.313726 1
1 0.498039 0.313726 1
1 0.498039 0.313726 1
1 0.498039 0.313726 1
1 0.498039 0.313726 1
1 0.498039 0.313726 1
1 0.498039 0.313726 1
1 0.498039 0.313726 1
1 0.498039 0.313726 1
1 0.498039 0.313726 1
1 0.498039 0.313726 1
1 0.498039 0.313726 1
1 0.498039 0.313726 1
1 0.498039 0.313726 1
1 0.498039 0.313726 1
1 0.498039 0.313726 1
1 0.498039 0.313726 1
1 0.498039 0.313726 1
1 0.498039 0.313726 1
1 0.498039 0.313726 1
1 0.498039 0.313726 1
1 0.498039 0.313726 1
1 0.498039 0.313726 1
1 0.498039 0.313726 1
1 0.498039 0.313726 1
1 0.498039 0.313726 1
1 0.498039 0.313726 1
1 0.498039 0.313726 1
1 0.498039 0.313726 1
1 0.498039 0.313726 1
1 0.498039 0.313726 1
1 0.498039 0.313726 1
1 0.498039 0.313726 1
1 0.498039 0.313726 1
1 0.498039 0.313726 1
1 0.498039 0.313726 1
1 0.498039 0.313726 1
1 0.498039 0.313726 1
1 0.498039 0.313726 1
1 0.498039 0.313726 1
1 0.498039 0.313726 1
1 0.498039 0.313726 1
1 0.498039 0.313726 1
1 0.498039 0.313726 1
1 0.498039 0.313726 1
1 0.498039 0.313726 1
1 0.498039 0.313726 1
1 0.498039 0.313726 1
1 0.498039 0.313726 1
1 0.498039 0.313726 1
1 0.498039 0.313726 1
1 0.498039 0.313726 1
1 0.498039 0.313726 1
1 0.498039 0.313726 1
1 0.498039 0.313726 1
1 0.498039 0.313726 1
1 0.498039 0.313726 1
1 0.498039 0.313726 1
1 0.498039 0.313726 1
1 0.498039 0.313726 1
1 0.498039 0.313726 1
1 0.498039 0.313726 1
1 0.498039 0.313726 1
1 0.498039 0.313726 1
1 0.498039 0.313726 1
1 0.498039 0.313726 1
1 0.498039 0.313726 1
1 0.498039 0.313726 1
1 0.498039 0.313726 1
1 0.498039 0.313726 1
1 0.498039 0.313726 1
1 0.498039 0.313726 1
1 0.498039 0.313726 1
1 0.498039 0.313726 1
1 0.498039 0.313726 1
1 0.498039 0.313726 1
1 0.498039 0.313726 1
1 0.498039 0.313726 1
1 0.498039 0.313726 1
1 0.498039 0.313726 1
1 0.498039 0.313726 1
1 0.498039 0.313726 1
1 0.498039 0.313726 1
1 0.498039 0.313726 1
1 0.498039 0.313726 1
1 0.498039 0.313726 1
1 0.498039 0.313726 1
1 0.498039 0.313726 1
1 0.498039 0.313726 1
1 0.498039 0.313726 1
1 0.498039 0.313726 1
1 0.498039 0.313726 1
1 0.498039 0.313726 1
1 0.498039 0.313726 1
1 0.498039 0.313726 1
1 0.498039 0.313726 1
1 0.498039 0.313726 1
1 0.498039 0.313726 1
1 0.498039 0.313726 1
1 0.498039 0.313726 1
1 0.498039 0.313726 1
1 0.498039 0.313726 1
1 0.498039 0.313726 1
1 0.498039 0.313726 1
1 0.498039 0.313726 1
1 0.498039 0.313726 1
1 0.498039 0.313726 1
1 0.498039 0.313726 1
1 0.498039 0.313726 1
1 0.498039 0.313726 1
1 0.498039 0.313726 1
1 0.498039 0.313726 1
1 0.498039 0.313726 1
1 0.498039 0.313726 1
1 0.498039 0.313726 1
1 0.498039 0.313726 1
1 0.498039 0.313726 1
1 0.498039 0.313726 1
1 0.498039 0.313726 1
1 0.498039 0.313726 1
1 0.498039 0.313726 1
1 0.498039 0.313726 1
1 0.498039 0.313726 1
1 0.498039 0.313726 1
1 0.498039 0.313726 1
1 0.498039 0.313726 1
1 0.498039 0.313726 1
1 0.498039 0.313726 1
1 0.498039 0.313726 1
1 0.498039 0.313726 1
1 0.498039 0.313726 1
1 0.498039 0.313726 1
1 0.498039 0.313726 1
1 0.498039 0.313726 1
1 0.498039 0.313726 1
1 0.498039 0.313726 1
1 0.498039 0.313726 1
1 0.498039 0.313726 1
1 0.498039 0.313726 1
1 0.498039 0.313726 1
1 0.498039 0.313726 1
1 0.498039 0.313726 1
1 0.498039 0.313726 1
1 0.498039 0.313726 1
1 0.498039 0.313726 1
1 0.498039 0.313726 1
1 0.498039 0.313726 1
1 0.498039 0.313726 1
1 0.498039 0.313726 1
1 0.498039 0.313726 1
1 0.498039 0.313726 1
1 0.498039 0.313726 1
1 0.498039 0.313726 1
1 0.498039 0.313726 1
1 0.498039 0.313726 1
1 0.498039 0.313726 1
1 0.498039 0.313726 1
1 0.498039 0.313726 1
1 0.498039 0.313726 1
1 0.498039 0.313726 1
1 0.498039 0.313726 1
1 0.498039 0.313726 1
1 0.498039 0.313726 1
1 0.498039 0.313726 1
1 0.498039 0.313726 1
1 0.498039 0.313726 1
1 0.498039 0.313726 1
1 0.498039 0.313726 1
1 0.498039 0.313726 1
1 0.498039 0.313726 1
1 0.498039 0.313726 1
1 0.498039 0.313726 1
1 0.498039 0.313726 1
1 0.498039 0.313726 1
1 0.498039 0.313726 1
1 0.498039 0.313726 1
1 0.498039 0.313726 1
1 0.498039 0.313726 1
1 0.498039 0.313726 1
1 0.498039 0.313726 1
1 0.498039 0.313726 1
1 0.498039 0.313726 1
1 0.498039 0.313726 1
1 0.498039 0.313726 1
1 0.498039 0.313726 1
1 0.498039 0.313726 1
1 0.498039 0.313726 1
1 0.498039 0.313726 1
1 0.498039 0.313726 1
1 0.498039 0.313726 1
1 0.498039 0.313726 1
1 0.498039 0.313726 1
1 0.498039 0.313726 1
1 0.498039 0.313726 1
1 0.498039 0.313726 1
1 0.498039 0.313726 1
1 0.498039 0.313726 1
1 0.498039 0.313726 1
1 0.498039 0.313726 1
1 0.498039 0.313726 1
1 0.498039 0.313726 1
1 0.498039 0.313726 1
1 0.498039 0.313726 1
1 0.498039 0.313726 1
1 0.498039 0.313726 1
1 0.498039 0.313726 1
1 0.498039 0.313726 1
1 0.498039 0.313726 1
1 0.498039 0.313726 1
1 0.498039 0.313726 1
1 0.498039 0.313726 1
1 0.498039 0.313726 1
1 0.498039 0.313726 1
1 0.498039 0.313726 1
1 0.498039 0.313726 1
1 0.498039 0.313726 1
1 0.498039 0.313726 1
1 0.498039 0.313726 1
1 0.498039 0.313726 1
1 0.498039 0.313726 1
1 0.498039 0.313726 1
1 0.498039 0.313726 1
1 0.498039 0.313726 1
1 0.498039 0.313726 1
1 0.498039 0.313726 1
1 0.498039 0.313726 1
1 0.498039 0.313726 1
1 0.498039 0.313726 1
1 0.498039 0.313726 1

