# vtk DataFile Version 3.0
Gocad TSurf to VTK
ASCII
DATASET POLYDATA
POINTS 747 float
21575450.000 4580805.000 -835.000
21576000.000 4581260.000 -460.000
21575950.000 4581055.000 -647.500
21576225.000 4581170.000 -482.500
21575750.000 4580835.000 -835.000
21575300.000 4580715.000 -912.500
21575300.000 4580640.000 -990.000
21575400.000 4581095.000 -647.500
21575175.000 4580822.500 -835.000
21575500.000 4581400.000 -460.000
21574800.000 4580920.000 -835.000
21576200.000 4581615.000 -140.000
21576400.000 4581970.000 180.000
21576800.000 4581760.000 180.000
21576500.000 4581917.500 180.000
21576200.000 4581307.500 -341.250
21576800.000 4581682.500 138.750
21576600.000 4581402.500 -103.750
21576800.000 4581605.000 97.500
21576475.000 4581072.500 -426.250
21576400.000 4580865.000 -592.500
21576900.000 4581160.000 -110.000
21576825.000 4580937.500 -298.750
21576450.000 4580727.500 -643.750
21577000.000 4580870.000 -235.000
21577300.000 4581090.000 180.000
21576500.000 4580590.000 -695.000
21577000.000 4580630.000 -326.250
21576350.000 4580655.000 -730.000
21576100.000 4580350.000 -1075.000
21576500.000 4580345.000 -778.750
21576050.000 4580475.000 -1015.000
21576050.000 4580785.000 -800.000
21575900.000 4580385.000 -1092.500
21575800.000 4580150.000 -1270.000
21576000.000 4580600.000 -955.000
21575500.000 4580455.000 -1127.500
21575425.000 4580405.000 -1176.250
21575075.000 4580377.500 -1161.250
21575550.000 4580320.000 -1207.500
21575675.000 4580235.000 -1238.750
21575450.000 4580230.000 -1235.000
21575450.000 4580037.500 -1311.250
21575525.000 4580100.000 -1280.000
21575600.000 4579980.000 -1325.000
21574850.000 4579685.000 -1266.250
21575600.000 4579535.000 -1282.500
21574400.000 4580190.000 -1075.000
21574700.000 4579600.000 -1242.500
21574400.000 4580317.500 -1050.000
21574100.000 4580167.500 -1068.750
21574700.000 4580737.500 -895.000
21574400.000 4580572.500 -1000.000
21574925.000 4580887.500 -835.000
21574400.000 4580700.000 -975.000
21574425.000 4580810.000 -888.750
21574725.000 4580975.000 -783.750
21574450.000 4580920.000 -802.500
21574800.000 4581220.000 -606.250
21574575.000 4581085.000 -681.250
21575325.000 4581380.000 -477.500
21575425.000 4581647.500 -302.500
21575475.000 4581482.500 -407.500
21576150.000 4581910.000 72.500
21575500.000 4581890.000 -156.250
21576325.000 4582020.000 177.500
21576250.000 4582070.000 175.000
21576325.000 4582020.000 177.500
21576175.000 4582120.000 172.500
21576100.000 4582170.000 170.000
21576025.000 4582220.000 158.750
21575600.000 4582050.000 -62.500
21575950.000 4582270.000 147.500
21575250.000 4581820.000 -222.500
21575100.000 4581910.000 -195.000
21575250.000 4582260.000 -27.500
21574875.000 4581685.000 -302.500
21575050.000 4581700.000 -285.000
21574700.000 4581670.000 -320.000
21574700.000 4581790.000 -285.000
21574725.000 4581582.500 -372.500
21574650.000 4581537.500 -397.500
21574600.000 4581405.000 -475.000
21574550.000 4581272.500 -552.500
21574500.000 4581140.000 -630.000
21574475.000 4581030.000 -716.250
21574875.000 4582120.000 -165.000
21574700.000 4581910.000 -250.000
21574800.000 4582190.000 -155.000
21575400.000 4582610.000 140.000
21574800.000 4582090.000 -183.750
21574700.000 4582150.000 -180.000
21574700.000 4582030.000 -215.000
21575500.000 4582550.000 136.250
21575800.000 4582370.000 125.000
21575875.000 4582320.000 136.250
21574300.000 4580522.500 -1006.250
21574200.000 4580345.000 -1037.500
21574000.000 4579990.000 -1100.000
21574025.000 4579922.500 -1115.000
21573900.000 4579832.500 -1058.750
21573800.000 4579675.000 -1017.500
21573575.000 4579627.500 -848.750
21572875.000 4578977.500 -170.000
21572875.000 4578977.500 -170.000
21573150.000 4579265.000 -597.500
21573600.000 4579360.000 -935.000
21572950.000 4579030.000 -462.500
21572600.000 4578710.000 -250.000
21573300.000 4578885.000 -677.500
21573100.000 4578750.000 -495.000
21573600.000 4579065.000 -837.500
21574100.000 4579375.000 -1082.500
21573200.000 4578490.000 -365.000
21573750.000 4578410.000 -552.500
21573075.000 4578572.500 -355.000
21573100.000 4578400.000 -320.000
21572950.000 4578645.000 -335.000
21572771.063 4578678.367 -292.592
21573000.000 4578497.500 -313.750
21572859.125 4578573.094 -304.165
21572984.234 4578343.469 -285.370
21573200.000 4578252.500 -278.750
21572913.172 4578455.102 -287.777
21572800.000 4578260.000 -390.000
21572750.000 4578372.500 -355.000
21572925.000 4578127.500 -327.500
21573063.172 4578190.102 -249.027
21572700.000 4578150.000 -405.000
21572850.000 4578045.000 -338.750
21572625.000 4578262.500 -377.500
21572600.000 4578110.000 -305.000
21572550.000 4578380.000 -350.000
21572700.000 4578485.000 -320.000
21572550.000 4578232.500 -302.500
21572450.000 4578320.000 -217.500
21572525.000 4578210.000 -186.250
21572775.000 4578007.500 -151.250
21572575.000 4578235.000 -81.250
21572900.000 4578290.000 125.000
21572450.000 4578320.000 -125.000
21572375.000 4578430.000 -110.000
21572525.000 4578505.000 66.250
21572375.000 4578430.000 -248.750
21572300.000 4578540.000 -95.000
21572696.063 4578618.367 -258.842
21572792.125 4578526.734 -267.685
21572500.000 4578640.000 140.000
21572600.000 4578552.500 136.250
21572700.000 4578465.000 132.500
21572600.000 4578552.500 136.250
21572800.000 4578377.500 128.750
21573000.000 4578142.500 80.000
21572950.000 4577915.000 -147.500
21573050.000 4578172.500 156.250
21573100.000 4578010.000 -7.500
21573200.000 4578055.000 187.500
21573200.000 4577840.000 61.250
21573200.000 4578050.000 187.500
21573350.000 4577937.500 218.750
21573350.000 4577930.000 218.750
21573425.000 4577622.500 33.750
21573300.000 4577730.000 -140.000
21573500.000 4577820.000 250.000
21573575.000 4577720.000 191.250
21573500.000 4577810.000 250.000
21573625.000 4577740.000 257.500
21573650.000 4577620.000 132.500
21573750.000 4577670.000 265.000
21573875.000 4577600.000 272.500
21573800.000 4577420.000 15.000
21573675.000 4577487.500 21.250
21574000.000 4577530.000 280.000
21574050.000 4577462.500 202.500
21573900.000 4577380.000 3.750
21574100.000 4577482.500 276.250
21574200.000 4577435.000 272.500
21574100.000 4577482.500 276.250
21574300.000 4577387.500 268.750
21574150.000 4577335.000 -75.000
21574400.000 4577340.000 265.000
21574325.000 4577200.000 -46.250
21574200.000 4577260.000 -165.000
21574475.000 4577257.500 208.750
21574450.000 4577135.000 5.000
21574500.000 4577267.500 275.000
21574600.000 4577195.000 285.000
21574500.000 4577267.500 275.000
21574550.000 4577175.000 152.500
21574700.000 4577122.500 295.000
21574575.000 4577072.500 22.500
21574575.000 4577080.000 -78.750
21574700.000 4577010.000 40.000
21574700.000 4577020.000 -95.000
21574800.000 4577050.000 305.000
21574875.000 4576897.500 232.500
21574800.000 4576867.500 33.750
21574925.000 4576930.000 308.750
21575050.000 4576810.000 312.500
21574950.000 4576745.000 160.000
21575175.000 4576690.000 316.250
21574900.000 4576730.000 -137.500
21574800.000 4576875.000 -116.250
21575100.000 4576440.000 15.000
21575025.000 4576592.500 -205.000
21575300.000 4576570.000 320.000
21575325.000 4576445.000 243.750
21575250.000 4576260.000 -75.000
21575375.000 4576475.000 323.750
21575450.000 4576380.000 327.500
21575450.000 4576375.000 327.500
21575350.000 4576320.000 167.500
21575525.000 4576285.000 331.250
21575500.000 4575955.000 21.250
21575350.000 4576300.000 -270.000
21575650.000 4576045.000 261.250
21575700.000 4575900.000 187.500
21575600.000 4576180.000 335.000
21575525.000 4576277.500 331.250
21575700.000 4576065.000 335.000
21575800.000 4575955.000 335.000
21575900.000 4575837.500 335.000
21575900.000 4575835.000 335.000
21575750.000 4575755.000 113.750
21576000.000 4575720.000 335.000
21575600.000 4575845.000 -55.000
21575700.000 4575725.000 33.750
21575700.000 4575732.500 -90.000
21575800.000 4575610.000 40.000
21575925.000 4575505.000 68.750
21575900.000 4575505.000 -101.250
21576075.000 4575587.500 290.000
21576050.000 4575400.000 97.500
21576100.000 4575605.000 335.000
21576300.000 4575375.000 335.000
21576200.000 4575490.000 335.000
21576150.000 4575455.000 245.000
21576225.000 4575322.500 200.000
21576400.000 4575260.000 335.000
21576175.000 4575295.000 126.250
21576300.000 4575190.000 155.000
21576200.000 4575160.000 -30.000
21576525.000 4575115.000 123.750
21576450.000 4575092.500 -15.000
21576550.000 4575145.000 325.000
21576650.000 4574995.000 225.000
21576850.000 4574915.000 305.000
21576850.000 4574915.000 305.000
21576700.000 4575025.000 0.000
21576950.000 4574957.500 -53.750
21576450.000 4575092.500 -221.250
21576600.000 4575152.500 -401.250
21576150.000 4575302.500 -326.250
21576100.000 4575275.000 -53.750
21576400.000 4575240.000 -545.000
21576200.000 4575485.000 -467.500
21576500.000 4575497.500 -543.750
21576350.000 4575392.500 -513.750
21576800.000 4575625.000 -551.250
21577000.000 4575372.500 -502.500
21576550.000 4575675.000 -495.000
21576600.000 4575855.000 -453.750
21576300.000 4575732.500 -461.250
21576300.000 4575545.000 -482.500
21576400.000 4575950.000 -390.000
21576275.000 4576055.000 -417.500
21576200.000 4575850.000 -420.000
21576000.000 4575730.000 -390.000
21576100.000 4575607.500 -428.750
21575975.000 4575890.000 -417.500
21575825.000 4575790.000 -333.750
21575950.000 4576050.000 -445.000
21575800.000 4576575.000 -472.500
21575600.000 4576210.000 -375.000
21576425.000 4576480.000 -457.500
21576200.000 4576810.000 -420.000
21576750.000 4576515.000 -460.000
21576900.000 4576037.500 -447.500
21576575.000 4576602.500 -461.250
21576775.000 4576715.000 -497.500
21576500.000 4576750.000 -475.000
21576700.000 4576860.000 -515.000
21576625.000 4576947.500 -456.250
21576925.000 4576790.000 -583.750
21576900.000 4576970.000 -630.000
21576950.000 4576620.000 -537.500
21577100.000 4576700.000 -577.500
21576850.000 4576565.000 -480.000
21576975.000 4576450.000 -491.250
21577100.000 4576157.500 -473.750
21577325.000 4576270.000 -526.250
21577050.000 4575965.000 -482.500
21577200.000 4576030.000 -495.000
21576850.000 4575830.000 -502.500
21577200.000 4575670.000 -530.000
[...]
POINT_DATA 747
COLOR_SCALARS GocadColor 4
0 0 0.247058 1
0 0 0.247058 1
0 0 0.247058 1
0 0 0.247058 1
0 0 0.247058 1
0 0 0.247058 1
0 0 0.247058 1
0 0 0.247058 1
0 0 0.247058 1
0 0 0.247058 1
0 0 0.247058 1
0 0 0.247058 1
0 0 0.247058 1
0 0 0.247058 1
0 0 0.247058 1
0 0 0.247058 1
0 0 0.247058 1
0 0 0.247058 1
0 0 0.247058 1
0 0 0.247058 1
0 0 0.247058 1
0 0 0.247058 1
0 0 0.247058 1
0 0 0.247058 1
0 0 0.247058 1
0 0 0.247058 1
0 0 0.247058 1
0 0 0.247058 1
0 0 0.247058 1
0 0 0.247058 1
0 0 0.247058 1
0 0 0.247058 1
0 0 0.247058 1
0 0 0.247058 1
0 0 0.247058 1
0 0 0.247058 1
0 0 0.247058 1
0 0 0.247058 1
0 0 0.247058 1
0 0 0.247058 1
0 0 0.247058 1
0 0 0.247058 1
0 0 0.247058 1
0 0 0.247058 1
0 0 0.247058 1
0 0 0.247058 1
0 0 0.247058 1
0 0 0.247058 1
0 0 0.247058 1
0 0 0.247058 1
0 0 0.247058 1
0 0 0.247058 1
0 0 0.247058 1
0 0 0.247058 1
0 0 0.247058 1
0 0 0.247058 1
0 0 0.247058 1
0 0 0.247058 1
0 0 0.247058 1
0 0 0.247058 1
0 0 0.247058 1
0 0 0.247058 1
0 0 0.247058 1
0 0 0.247058 1
0 0 0.247058 1
0 0 0.247058 1
0 0 0.247058 1
0 0 0.247058 1
0 0 0.247058 1
0 0 0.247058 1
0 0 0.247058 1
0 0 0.247058 1
0 0 0.247058 1
0 0 0.247058 1
0 0 0.247058 1
0 0 0.247058 1
0 0 0.247058 1
0 0 0.247058 1
0 0 0.247058 1
0 0 0.247058 1
0 0 0.247058 1
0 0 0.247058 1
0 0 0.247058 1
0 0 0.247058 1
0 0 0.247058 1
0 0 0.247058 1
0 0 0.247058 1
0 0 0.247058 1
0 0 0.247058 1
0 0 0.247058 1
0 0 0.247058 1
0 0 0.247058 1
0 0 0.247058 1
0 0 0.247058 1
0 0 0.247058 1
0 0 0.247058 1
0 0 0.247058 1
0 0 0.247058 1
0 0 0.247058 1
0 0 0.247058 1
0 0 0.247058 1
0 0 0.247058 1
0 0 0.247058 1
0 0 0.247058 1
0 0 0.247058 1
0 0 0.247058 1
0 0 0.247058 1
0 0 0.247058 1
0 0 0.247058 1
0 0 0.247058 1
0 0 0.247058 1
0 0 0.247058 1
0 0 0.247058 1
0 0 0.247058 1
0 0 0.247058 1
0 0 0.247058 1
0 0 0.247058 1
0 0 0.247058 1
0 0 0.247058 1
0 0 0.247058 1
0 0 0.247058 1
0 0 0.247058 1
0 0 0.247058 1
0 0 0.247058 1
0 0 0.247058 1
0 0 0.247058 1
0 0 0.247058 1
0 0 0.247058 1
0 0 0.247058 1
0 0 0.247058 1
0 0 0.247058 1
0 0 0.247058 1
0 0 0.247058 1
0 0 0.247058 1
0 0 0.247058 1
0 0 0.247058 1
0 0 0.247058 1
0 0 0.247058 1
0 0 0.247058 1
0 0 0.247058 1
0 0 0.247058 1
0 0 0.247058 1
0 0 0.247058 1
0 0 0.247058 1
0 0 0.247058 1
0 0 0.247058 1
0 0 0.247058 1
0 0 0.247058 1
0 0 0.247058 1
0 0 0.247058 1
0 0 0.247058 1
0 0 0.247058 1
0 0 0.247058 1
0 0 0.247058 1
0 0 0.247058 1
0 0 0.247058 1
0 0 0.247058 1
0 0 0.247058 1
0 0 0.247058 1
0 0 0.247058 1
0 0 0.247058 1
0 0 0.247058 1
0 0 0.247058 1
0 0 0.247058 1
0 0 0.247058 1
0 0 0.247058 1
0 0 0.247058 1
0 0 0.247058 1
0 0 0.247058 1
0 0 0.247058 1
0 0 0.247058 1
0 0 0.247058 1
0 0 0.247058 1
0 0 0.247058 1
0 0 0.247058 1
0 0 0.247058 1
0 0 0.247058 1
0 0 0.247058 1
0 0 0.247058 1
0 0 0.247058 1
0 0 0.247058 1
0 0 0.247058 1
0 0 0.247058 1
0 0 0.247058 1
0 0 0.247058 1
0 0 0.247058 1
0 0 0.247058 1
0 0 0.247058 1
0 0 0.247058 1
0 0 0.247058 1
0 0 0.247058 1
0 0 0.247058 1
0 0 0.247058 1
0 0 0.247058 1
0 0 0.247058 1
0 0 0.247058 1
0 0 0.247058 1
0 0 0.247058 1
0 0 0.247058 1
0 0 0.247058 1
0 0 0.247058 1
0 0 0.247058 1
0 0 0.247058 1
0 0 0.247058 1
0 0 0.247058 1
0 0 0.247058 1
0 0 0.247058 1
0 0 0.247058 1
0 0 0.247058 1
0 0 0.247058 1
0 0 0.247058 1
0 0 0.247058 1
0 0 0.247058 1
0 0 0.247058 1
0 0 0.247058 1
0 0 0.247058 1
0 0 0.247058 1
0 0 0.247058 1
0 0 0.247058 1
0 0 0.247058 1
0 0 0.247058 1
0 0 0.247058 1
0 0 0.247058 1
0 0 0.247058 1
0 0 0.247058 1
0 0 0.247058 1
0 0 0.247058 1
0 0 0.247058 1
0 0 0.247058 1
0 0 0.247058 1
0 0 0.247058 1
0 0 0.247058 1
0 0 0.247058 1
0 0 0.247058 1
0 0 0.247058 1
0 0 0.247058 1
0 0 0.247058 1
0 0 0.247058 1
0 0 0.247058 1
0 0 0.247058 1
0 0 0.247058 1
0 0 0.247058 1
0 0 0.247058 1
0 0 0.247058 1
0 0 0.247058 1
0 0 0.247058 1
0 0 0.247058 1
0 0 0.247058 1
0 0 0.247058 1
0 0 0.247058 1
0 0 0.247058 1
0 0 0.247058 1
0 0 0.247058 1
0 0 0.247058 1
0 0 0.247058 1
0 0 0.247058 1
0 0 0.247058 1
0 0 0.247058 1
0 0 0.247058 1
0 0 0.247058 1
0 0 0.247058 1
0 0 0.247058 1
0 0 0.247058 1
0 0 0.247058 1
0 0 0.247058 1
0 0 0.247058 1
0 0 0.247058 1
0 0 0.247058 1
0 0 0.247058 1
0 0 0.247058 1
0 0 0.247058 1
0 0 0.247058 1
0 0 0.247058 1
0 0 0.247058 1
0 0 0.247058 1
0 0 0.247058 1
0 0 0.247058 1
0 0 0.247058 1
0 0 0.247058 1
0 0 0.247058 1
0 0 0.247058 1
0 0 0.247058 1
0 0 0.247058 1
0 0 0.247058 1
0 0 0.247058 1
0 0 0.247058 1
0 0 0.247058 1
0 0 0.247058 1
0 0 0.247058 1
0 0 0.247058 1
0 0 0.247058 1
0 0 0.247058 1
0 0 0.247058 1
0 0 0.247058 1
0 0 0.247058 1
0 0 0.247058 1
0 0 0.247058 1
0 0 0.247058 1
0 0 0.247058 1
0 0 0.247058 1
0 0 0.247058 1
0 0 0.247058 1
0 0 0.247058 1
0 0 0.247058 1
0 0 0.247058 1
0 0 0.247058 1
0 0 0.247058 1
0 0 0.247058 1
0 0 0.247058 1
0 0 0.247058 1
0 0 0.247058 1
0 0 0.247058 1
0 0 0.247058 1
0 0 0.247058 1
0 0 0.247058 1
0 0 0.247058 1
0 0 0.247058 1
0 0 0.247058 1
0 0 0.247058 1
0 0 0.247058 1
0 0 0.247058 1
0 0 0.247058 1
0 0 0.247058 1
0 0 0.247058 1
0 0 0.247058 1
0 0 0.247058 1
0 0 0.247058 1
0 0 0.247058 1
0 0 0.247058 1
0 0 0.247058 1
0 0 0.247058 1
0 0 0.247058 1
0 0 0.247058 1
0 0 0.247058 1
0 0 0.247058 1
0 0 0.247058 1
0 0 0.247058 1
0 0 0.247058 1
0 0 0.247058 1
0 0 0.247058 1
0 0 0.247058 1
0 0 0.247058 1
0 0 0.247058 1
0 0 0.247058 1
0 0 0.247058 1
0 0 0.247058 1
0 0 0.247058 1
0 0 0.247058 1
0 0 0.247058 1
0 0 0.247058 1
0 0 0.247058 1
0 0 0.247058 1
0 0 0.247058 1
0 0 0.247058 1
0 0 0.247058 1
0 0 0.247058 1
0 0 0.247058 1
0 0 0.247058 1
0 0 0.247058 1
0 0 0.247058 1
0 0 0.247058 1
0 0 0.247058 1
0 0 0.247058 1
0 0 0.247058 1
0 0 0.247058 1
0 0 0.247058 1
0 0 0.247058 1
0 0 0.247058 1
0 0 0.247058 1
0 0 0.247058 1
0 0 0.247058 1
0 0 0.247058 1
0 0 0.247058 1
0 0 0.247058 1
0 0 0.247058 1
0 0 0.247058 1
0 0 0.247058 1
0 0 0.247058 1
0 0 0.247058 1
0 0 0.247058 1
0 0 0.247058 1
0 0 0.247058 1
0 0 0.247058 1
0 0 0.247058 1
0 0 0.247058 1
0 0 0.247058 1
0 0 0.247058 1
0 0 0.247058 1
0 0 0.247058 1
0 0 0.247058 1
0 0 0.247058 1
0 0 0.247058 1
0 0 0.247058 1
0 0 0.247058 1
0 0 0.247058 1
0 0 0.247058 1
0 0 0.247058 1
0 0 0.247058 1
0 0 0.247058 1
0 0 0.247058 1
0 0 0.247058 1
0 0 0.247058 1
0 0 0.247058 1
0 0 0.247058 1
0 0 0.247058 1
0 0 0.247058 1
0 0 0.247058 1
0 0 0.247058 1
0 0 0.247058 1
0 0 0.247058 1
0 0 0.247058 1
0 0 0.247058 1
0 0 0.247058 1
0 0 0.247058 1
0 0 0.247058 1
0 0 0.247058 1
0 0 0.247058 1
0 0 0.247058 1
0 0 0.247058 1
0 0 0.247058 1
0 0 0.247058 1
0 0 0.247058 1
0 0 0.247058 1
0 0 0.247058 1
0 0 0.247058 1
0 0 0.247058 1
0 0 0.247058 1
0 0 0.247058 1
0 0 0.247058 1
0 0 0.247058 1
0 0 0.247058 1
0 0 0.247058 1
0 0 0.247058 1
0 0 0.247058 1
0 0 0.247058 1
0 0 0.247058 1
0 0 0.247058 1
0 0 0.247058 1
0 0 0.247058 1
0 0 0.247058 1
0 0 0.247058 1
0 0 0.247058 1
0 0 0.247058 1
0 0 0.247058 1
0 0 0.247058 1
0 0 0.247058 1
0 0 0.247058 1
0 0 0.247058 1
0 0 0.247058 1
0 0 0.247058 1
0 0 0.247058 1
0 0 0.247058 1
0 0 0.247058 1
0 0 0.247058 1
0 0 0.247058 1
0 0 0.247058 1
0 0 0.247058 1
0 0 0.247058 1
0 0 0.247058 1
0 0 0.247058 1
0 0 0.247058 1
0 0 0.247058 1
0 0 0.247058 1
0 0 0.247058 1
0 0 0.247058 1
0 0 0.247058 1
0 0 0.247058 1
0 0 0.247058 1
0 0 0.247058 1
0 0 0.247058 1
0 0 0.247058 1
0 0 0.247058 1
0 0 0.247058 1
0 0 0.247058 1
0 0 0.247058 1
0 0 0.247058 1
0 0 0.247058 1
0 0 0.247058 1
0 0 0.247058 1
0 0 0.247058 1
0 0 0.247058 1
0 0 0.247058 1
0 0 0.247058 1
0 0 0.247058 1
0 0 0.247058 1
0 0 0.247058 1
0 0 0.247058 1
0 0 0.247058 1
0 0 0.247058 1
0 0 0.247058 1
0 0 0.247058 1
0 0 0.247058 1
0 0 0.247058 1
0 0 0.247058 1
0 0 0.247058 1
0 0 0.247058 1
0 0 0.247058 1
0 0 0.247058 1
0 0 0.247058 1
0 0 0.247058 1
0 0 0.247058 1
0 0 0.247058 1
0 0 0.247058 1
0 0 0.247058 1
0 0 0.247058 1
0 0 0.247058 1
0 0 0.247058 1
0 0 0.247058 1
0 0 0.247058 1
0 0 0.247058 1
0 0 0.247058 1
0 0 0.247058 1
0 0 0.247058 1
0 0 0.247058 1
0 0 0.247058 1
0 0 0.247058 1
0 0 0.247058 1
0 0 0.247058 1
0 0 0.247058 1
0 0 0.247058 1
0 0 0.247058 1
0 0 0.247058 1
0 0 0.247058 1
0 0 0.247058 1
0 0 0.247058 1
0 0 0.247058 1
0 0 0.247058 1
0 0 0.247058 1
0 0 0.247058 1
0 0 0.247058 1
0 0 0.247058 1
0 0 0.247058 1
0 0 0.247058 1
0 0 0.247058 1
0 0 0.247058 1
0 0 0.247058 1
0 0 0.247058 1
0 0 0.247058 1
0 0 0.247058 1
0 0 0.247058 1
0 0 0.247058 1
0 0 0.247058 1
0 0 0.247058 1
0 0 0.247058 1
0 0 0.247058 1
0 0 0.247058 1
0 0 0.247058 1
0 0 0.247058 1
0 0 0.247058 1
0 0 0.247058 1
0 0 0.247058 1
0 0 0.247058 1
0 0 0.247058 1
0 0 0.247058 1
0 0 0.247058 1
0 0 0.247058 1
0 0 0.247058 1
0 0 0.247058 1
0 0 0.247058 1
0 0 0.247058 1
0 0 0.247058 1
0 0 0.247058 1
0 0 0.247058 1
0 0 0.247058 1
0 0 0.247058 1
0 0 0.247058 1
0 0 0.247058 1
0 0 0.247058 1
0 0 0.247058 1
0 0 0.247058 1
0 0 0.247058 1
0 0 0.247058 1
0 0 0.247058 1
0 0 0.247058 1
0 0 0.247058 1
0 0 0.247058 1
0 0 0.247058 1
0 0 0.247058 1
0 0 0.247058 1
0 0 0.247058 1
0 0 0.247058 1
0 0 0.247058 1
0 0 0.247058 1
0 0 0.247058 1
0 0 0.247058 1
0 0 0.247058 1
0 0 0.247058 1
0 0 0.247058 1
0 0 0.247058 1
0 0 0.247058 1
0 0 0.247058 1
0 0 0.247058 1
0 0 0.247058 1
0 0 0.247058 1
0 0 0.247058 1
0 0 0.247058 1
0 0 0.247058 1
0 0 0.247058 1
0 0 0.247058 1
0 0 0.247058 1
0 0 0.247058 1
0 0 0.247058 1
0 0 0.247058 1
0 0 0.247058 1
0 0 0.247058 1
0 0 0.247058 1
0 0 0.247058 1
0 0 0.247058 1
0 0 0.247058 1
0 0 0.247058 1
0 0 0.247058 1
0 0 0.247058 1
0 0 0.247058 1
0 0 0.247058 1
0 0 0.247058 1
0 0 0.247058 1
0 0 0.247058 1
0 0 0.247058 1
0 0 0.247058 1
0 0 0.247058 1
0 0 0.247058 1
0 0 0.247058 1
0 0 0.247058 1
0 0 0.247058 1
0 0 0.247058 1
0 0 0.247058 1
0 0 0.247058 1
0 0 0.247058 1
0 0 0.247058 1
0 0 0.247058 1
0 0 0.247058 1
0 0 0.247058 1
0 0 0.247058 1
0 0 0.247058 1
0 0 0.247058 1
0 0 0.247058 1
0 0 0.247058 1
0 0 0.247058 1
0 0 0.247058 1
0 0 0.247058 1
0 0 0.247058 1
0 0 0.247058 1
0 0 0.247058 1
0 0 0.247058 1
0 0 0.247058 1
0 0 0.247058 1
0 0 0.247058 1
0 0 0.247058 1
0 0 0.247058 1
0 0 0.247058 1
0 0 0.247058 1
0 0 0.247058 1
0 0 0.247058 1
0 0 0.247058 1
0 0 0.247058 1
0 0 0.247058 1
0 0 0.247058 1
0 0 0.247058 1
0 0 0.247058 1
0 0 0.247058 1
0 0 0.247058 1
0 0 0.247058 1
0 0 0.247058 1
0 0 0.247058 1
0 0 0.247058 1
0 0 0.247058 1
0 0 0.247058 1
0 0 0.247058 1
0 0 0.247058 1
0 0 0.247058 1
0 0 0.247058 1
0 0 0.247058 1
0 0 0.247058 1
0 0 0.247058 1
0 0 0.247058 1
0 0 0.247058 1
0 0 0.247058 1
0 0 0.247058 1
0 0 0.247058 1
0 0 0.247058 1
0 0 0.247058 1
0 0 0.247058 1
0 0 0.247058 1
0 0 0.247058 1
0 0 0.247058 1
0 0 0.247058 1
0 0 0.247058 1
0 0 0.247058 1
0 0 0.247058 1
0 0 0.247058 1
0 0 0.247058 1
0 0 0.247058 1
0 0 0.247058 1
0 0 0.247058 1
0 0 0.247058 1
0 0 0.247058 1
0 0 0.247058 1
0 0 0.247058 1
0 0 0.247058 1
0 0 0.247058 1
0 0 0.247058 1
0 0 0.247058 1
0 0 0.247058 1
0 0 0.247058 1
0 0 0.247058 1
0 0 0.247058 1
0 0 0.247058 1
0 0 0.247058 1
0 0 0.247058 1
0 0 0.247058 1
0 0 0.247058 1
0 0 0.247058 1
0 0 0.247058 1
0 0 0.247058 1
0 0 0.247058 1
0 0 0.247058 1
0 0 0.247058 1
0 0 0.247058 1
0 0 0.247058 1
0 0 0.247058 1
0 0 0.247058 1
0 0 0.247058 1
0 0 0.247058 1
0 0 0.247058 1
0 0 0.247058 1
0 0 0.247058 1
0 0 0.247058 1
0 0 0.247058 1
0 0 0.247058 1
0 0 0.247058 1
0 0 0.247058 1
0 0 0.247058 1
0 0 0.247058 1
0 0 0.247058 1
0 0 0.247058 1
0 0 0.247058 1
0 0 0.247058 1
0 0 0.247058 1
0 0 0.247058 1
0 0 0.247058 1
0 0 0.247058 1
0 0 0.247058 1
0 0 0.247058 1
0 0 0.247058 1
0 0 0.247058 1
0 0 0.247058 1
0 0 0.247058 1

