# vtk DataFile Version 3.0
Gocad TSurf to VTK
ASCII
DATASET POLYDATA
POINTS 405 float
21547150.000 4563742.500 -212.500
21546475.000 4563517.500 -201.250
21547000.000 4563485.000 -210.000
21546550.000 4563335.000 -202.500
21547450.000 4563630.000 -217.500
21546400.000 4563700.000 -200.000
21546325.000 4563465.000 -190.000
21547300.000 4564000.000 -215.000
21547100.000 4564080.000 -208.750
21547375.000 4563815.000 -216.250
21547825.000 4563972.500 -182.500
21547750.000 4563735.000 -195.000
21547900.000 4564210.000 -170.000
21547700.000 4564295.000 -165.000
21547975.000 4564022.500 -165.000
21548050.000 4563835.000 -160.000
21548075.000 4564050.000 -137.500
21548825.000 4564282.500 -96.250
21548750.000 4564045.000 -77.500
21548900.000 4564520.000 -115.000
21548875.000 4564300.000 -47.500
21548725.000 4564617.500 -96.250
21548850.000 4564655.000 -112.500
21547975.000 4564385.000 -137.500
21548550.000 4564715.000 -77.500
21547875.000 4564347.500 -140.000
21547850.000 4564485.000 -110.000
21547500.000 4564380.000 -160.000
21547825.000 4564622.500 -80.000
21547250.000 4564137.500 -198.750
21547200.000 4564275.000 -182.500
21547300.000 4564465.000 -155.000
21546900.000 4564160.000 -202.500
21547150.000 4564412.500 -166.250
21546425.000 4563855.000 -197.500
21546450.000 4564010.000 -195.000
21546700.000 4564240.000 -196.250
21546200.000 4563782.500 -197.500
21546000.000 4563865.000 -195.000
21545300.000 4563310.000 -185.000
21545375.000 4563490.000 -186.250
21545200.000 4563432.500 -182.500
21545100.000 4563555.000 -180.000
21544750.000 4563297.500 -152.500
21544800.000 4563465.000 -160.000
21544700.000 4563130.000 -145.000
21545250.000 4563092.500 -158.750
21544600.000 4563247.500 -138.750
21544500.000 4563365.000 -132.500
21544600.000 4563247.500 -138.750
21544150.000 4563090.000 -127.500
21544200.000 4563260.000 -125.000
21544100.000 4562920.000 -130.000
21544625.000 4562902.500 -125.000
21543775.000 4562955.000 -116.250
21543950.000 4563170.000 -117.500
21543600.000 4562740.000 -115.000
21543800.000 4562610.000 -102.500
21543250.000 4562782.500 -116.250
21543600.000 4563055.000 -117.500
21542900.000 4562510.000 -115.000
21543075.000 4562375.000 -120.000
21542875.000 4562662.500 -75.000
21543350.000 4562975.000 -90.000
21542400.000 4562350.000 -60.000
21542575.000 4562215.000 -85.000
21542875.000 4562662.500 -75.000
21543350.000 4562975.000 -90.000
21543825.000 4563287.500 -105.000
21543825.000 4563287.500 -105.000
21544300.000 4563600.000 -120.000
21543950.000 4563327.500 -118.750
21544125.000 4563385.000 -118.750
21544250.000 4563430.000 -122.500
21544500.000 4563365.000 -132.500
21544400.000 4563482.500 -126.250
21544400.000 4563482.500 -126.250
21544850.000 4563632.500 -167.500
21545000.000 4563677.500 -177.500
21545450.000 4563670.000 -187.500
21544900.000 4563800.000 -175.000
21545525.000 4563850.000 -188.750
21545600.000 4564030.000 -190.000
21545800.000 4563947.500 -192.500
21546500.000 4564320.000 -190.000
21545950.000 4564245.000 -148.750
21546475.000 4564165.000 -192.500
21547100.000 4564550.000 -150.000
21546625.000 4564462.500 -148.750
21547800.000 4564760.000 -50.000
21547600.000 4564795.000 -43.750
21548125.000 4564735.000 -72.500
21548200.000 4564910.000 -40.000
21548050.000 4564560.000 -105.000
21548375.000 4564812.500 -58.750
21548700.000 4565060.000 -105.000
21548550.000 4565115.000 -67.500
21548750.000 4564925.000 -107.500
21548825.000 4564955.000 -80.000
21548800.000 4564790.000 -110.000
21548950.000 4564850.000 -55.000
21549075.000 4564745.000 -30.000
21549200.000 4565082.500 -80.000
21549200.000 4565230.000 -105.000
21549200.000 4564935.000 -55.000
21549275.000 4565102.500 -38.750
21549200.000 4564787.500 -30.000
21549350.000 4564975.000 27.500
21549200.000 4564640.000 -5.000
21549425.000 4564847.500 93.750
21549100.000 4564390.000 35.000
21549325.000 4564450.000 158.750
21549150.000 4564180.000 157.500
21549500.000 4564720.000 160.000
21549500.000 4564877.500 148.750
21549500.000 4565035.000 137.500
21549500.000 4565192.500 126.250
21549500.000 4565350.000 115.000
21549275.000 4565367.500 -85.000
21549500.000 4565457.500 80.000
21549125.000 4565320.000 -88.750
21549050.000 4565410.000 -72.500
21548750.000 4565192.500 -88.750
21548800.000 4565325.000 -72.500
21548675.000 4565160.000 -85.000
21548650.000 4565260.000 -65.000
21548400.000 4565170.000 -30.000
21548175.000 4565002.500 -18.750
21548625.000 4565360.000 -45.000
21548250.000 4565225.000 7.500
21548150.000 4565095.000 2.500
21548600.000 4565460.000 -25.000
21548850.000 4565457.500 -56.250
21548100.000 4565280.000 45.000
21548125.000 4565187.500 23.750
21547825.000 4565075.000 12.500
21547950.000 4565020.000 -5.000
21547700.000 4565130.000 30.000
21547725.000 4565037.500 10.000
21547750.000 4564945.000 -10.000
21547200.000 4564865.000 -31.250
21547400.000 4564830.000 -37.500
21547000.000 4564900.000 -25.000
21547025.000 4564812.500 -56.250
21547050.000 4564725.000 -87.500
21547000.000 4564890.000 -25.000
21547025.000 4564805.000 -56.250
21546875.000 4564747.500 -66.250
21547050.000 4564720.000 -87.500
21546650.000 4564675.000 -66.250
21546750.000 4564605.000 -107.500
21546475.000 4564617.500 -62.500
21546300.000 4564460.000 -107.500
21546325.000 4564567.500 -48.750
21545950.000 4564345.000 -100.000
21546325.000 4564567.500 -48.750
21545650.000 4564245.000 -72.500
21545650.000 4564245.000 -72.500
21544975.000 4563922.500 -96.250
21544975.000 4563922.500 -96.250
21545425.000 4564072.500 -137.500
21547075.000 4564635.000 -118.750
21547075.000 4564637.500 -118.750
21547775.000 4564852.500 -30.000
21548075.000 4564965.000 -22.500
21548900.000 4565590.000 -40.000
21548975.000 4565500.000 -56.250
21549425.000 4565642.500 -45.000
21549350.000 4565505.000 -65.000
21549500.000 4565780.000 -25.000
21549500.000 4565672.500 10.000
21549500.000 4565565.000 45.000
21549650.000 4565725.000 115.000
21549600.000 4565600.000 115.000
21549700.000 4565850.000 115.000
21549550.000 4565475.000 115.000
21549000.000 4564140.000 75.000
21549133.281 4564154.199 157.381
21548976.422 4563923.023 151.649
21548965.938 4563907.582 151.266
21548900.000 4563890.000 115.000
21548965.422 4563906.816 151.247
21548850.000 4564080.000 20.000
21548825.000 4563860.000 87.500
21548675.000 4563807.500 -58.750
21548250.000 4563890.000 -105.000
21548804.234 4563677.305 143.554
21548792.938 4563649.457 142.932
21548826.422 4563706.047 144.432
21548899.031 4563812.168 147.468
21548935.563 4563858.359 152.050
21548787.297 4563635.555 142.622
21548600.000 4563570.000 -40.000
21548696.547 4563485.527 138.598
21548425.000 4563730.000 -72.500
21548200.000 4563460.000 -150.000
21548125.000 4563647.500 -155.000
21548550.000 4563430.000 -1.250
21548250.000 4563347.500 -83.750
21548693.281 4563480.148 138.454
21548599.750 4563325.535 134.307
21548599.266 4563324.742 134.286
21548500.000 4563290.000 37.500
21548587.766 4563305.719 133.776
21548300.000 4563235.000 -17.500
21548250.000 4563225.000 -80.000
21548450.000 4563150.000 76.250
21548350.000 4563122.500 48.750
21548500.000 4563167.500 125.000
21548400.000 4563010.000 115.000
21548300.000 4562990.000 -10.000
21548275.000 4563107.500 -45.000
21547500.000 4562572.500 73.750
21547425.000 4562557.500 -20.000
21547900.000 4562840.000 -160.000
21546600.000 4562135.000 32.500
21546550.000 4562125.000 -30.000
21547125.000 4562445.000 -132.500
21545700.000 4561697.500 -8.750
21545675.000 4561692.500 -40.000
21546350.000 4562050.000 -105.000
21544800.000 4561260.000 -50.000
21545575.000 4561655.000 -77.500
21545400.000 4561597.500 -77.500
21546000.000 4561935.000 -105.000
21545125.000 4561507.500 -67.500
21545450.000 4561755.000 -85.000
21544850.000 4561417.500 -43.750
21544900.000 4561575.000 -37.500
21544650.000 4561345.000 -43.750
21544400.000 4561110.000 5.000
21544350.000 4561232.500 -2.500
21544500.000 4561430.000 -37.500
21543975.000 4561127.500 -25.000
21544050.000 4561285.000 -25.000
21543900.000 4560970.000 -25.000
21543750.000 4561052.500 -56.250
21543600.000 4561135.000 -87.500
21543400.000 4560810.000 -80.000
21543375.000 4560932.500 -97.500
21543225.000 4560880.000 -103.750
21543350.000 4561055.000 -115.000
21542400.000 4560520.000 -40.000
21542475.000 4560662.500 -73.750
21543050.000 4560950.000 -127.500
21542225.000 4560580.000 -56.250
21542550.000 4560805.000 -107.500
21541400.000 4560190.000 -25.000
21541475.000 4560332.500 -45.000
21542050.000 4560640.000 -72.500
21541275.000 4560260.000 -31.250
21541150.000 4560330.000 -37.500
21541275.000 4560260.000 -31.250
21540525.000 4560027.500 21.250
21540650.000 4560175.000 -2.500
21540400.000 4559880.000 45.000
21540525.000 4560027.500 21.250
21540650.000 4560175.000 -2.500
21540775.000 4560322.500 -26.250
21540775.000 4560322.500 -26.250
21540900.000 4560470.000 -50.000
21541150.000 4560330.000 -37.500
21541025.000 4560400.000 -43.750
21541025.000 4560400.000 -43.750
21541550.000 4560475.000 -65.000
21541625.000 4560617.500 -85.000
21541875.000 4560700.000 -88.750
21541700.000 4560760.000 -105.000
21541075.000 4560680.000 -53.750
21541675.000 4560897.500 -95.000
21541075.000 4560680.000 -53.750
21541250.000 4560890.000 -57.500
21541250.000 4560890.000 -57.500
21541425.000 4561100.000 -61.250
21541650.000 4561035.000 -85.000
21541425.000 4561100.000 -61.250
21541650.000 4561035.000 -85.000
21541675.000 4560897.500 -95.000
21541625.000 4561172.500 -75.000
21541625.000 4561172.500 -75.000
21542050.000 4561165.000 -112.500
21541875.000 4560962.500 -108.750
21542225.000 4561367.500 -116.250
21542550.000 4561330.000 -147.500
21541600.000 4561310.000 -65.000
21542400.000 4561570.000 -120.000
21542475.000 4561450.000 -133.750
21541800.000 4561570.000 -63.750
21542400.000 4561765.000 -105.000
21541800.000 4561570.000 -63.750
21542000.000 4561830.000 -62.500
21542000.000 4561830.000 -62.500
21542200.000 4562090.000 -61.250
21542400.000 4561960.000 -90.000
21542200.000 4562090.000 -61.250
21542400.000 4561960.000 -90.000
21542400.000 4561765.000 -105.000
21542400.000 4562155.000 -75.000
[...]
POINT_DATA 405
COLOR_SCALARS GocadColor 4
0.529412 0.807843 0.921569 1
0.529412 0.807843 0.921569 1
0.529412 0.807843 0.921569 1
0.529412 0.807843 0.921569 1
0.529412 0.807843 0.921569 1
0.529412 0.807843 0.921569 1
0.529412 0.807843 0.921569 1
0.529412 0.807843 0.921569 1
0.529412 0.807843 0.921569 1
0.529412 0.807843 0.921569 1
0.529412 0.807843 0.921569 1
0.529412 0.807843 0.921569 1
0.529412 0.807843 0.921569 1
0.529412 0.807843 0.921569 1
0.529412 0.807843 0.921569 1
0.529412 0.807843 0.921569 1
0.529412 0.807843 0.921569 1
0.529412 0.807843 0.921569 1
0.529412 0.807843 0.921569 1
0.529412 0.807843 0.921569 1
0.529412 0.807843 0.921569 1
0.529412 0.807843 0.921569 1
0.529412 0.807843 0.921569 1
0.529412 0.807843 0.921569 1
0.529412 0.807843 0.921569 1
0.529412 0.807843 0.921569 1
0.529412 0.807843 0.921569 1
0.529412 0.807843 0.921569 1
0.529412 0.807843 0.921569 1
0.529412 0.807843 0.921569 1
0.529412 0.807843 0.921569 1
0.529412 0.807843 0.921569 1
0.529412 0.807843 0.921569 1
0.529412 0.807843 0.921569 1
0.529412 0.807843 0.921569 1
0.529412 0.807843 0.921569 1
0.529412 0.807843 0.921569 1
0.529412 0.807843 0.921569 1
0.529412 0.807843 0.921569 1
0.529412 0.807843 0.921569 1
0.529412 0.807843 0.921569 1
0.529412 0.807843 0.921569 1
0.529412 0.807843 0.921569 1
0.529412 0.807843 0.921569 1
0.529412 0.807843 0.921569 1
0.529412 0.807843 0.921569 1
0.529412 0.807843 0.921569 1
0.529412 0.807843 0.921569 1
0.529412 0.807843 0.921569 1
0.529412 0.807843 0.921569 1
0.529412 0.807843 0.921569 1
0.529412 0.807843 0.921569 1
0.529412 0.807843 0.921569 1
0.529412 0.807843 0.921569 1
0.529412 0.807843 0.921569 1
0.529412 0.807843 0.921569 1
0.529412 0.807843 0.921569 1
0.529412 0.807843 0.921569 1
0.529412 0.807843 0.921569 1
0.529412 0.807843 0.921569 1
0.529412 0.807843 0.921569 1
0.529412 0.807843 0.921569 1
0.529412 0.807843 0.921569 1
0.529412 0.807843 0.921569 1
0.529412 0.807843 0.921569 1
0.529412 0.807843 0.921569 1
0.529412 0.807843 0.921569 1
0.529412 0.807843 0.921569 1
0.529412 0.807843 0.921569 1
0.529412 0.807843 0.921569 1
0.529412 0.807843 0.921569 1
0.529412 0.807843 0.921569 1
0.529412 0.807843 0.921569 1
0.529412 0.807843 0.921569 1
0.529412 0.807843 0.921569 1
0.529412 0.807843 0.921569 1
0.529412 0.807843 0.921569 1
0.529412 0.807843 0.921569 1
0.529412 0.807843 0.921569 1
0.529412 0.807843 0.921569 1
0.529412 0.807843 0.921569 1
0.529412 0.807843 0.921569 1
0.529412 0.807843 0.921569 1
0.529412 0.807843 0.921569 1
0.529412 0.807843 0.921569 1
0.529412 0.807843 0.921569 1
0.529412 0.807843 0.921569 1
0.529412 0.807843 0.921569 1
0.529412 0.807843 0.921569 1
0.529412 0.807843 0.921569 1
0.529412 0.807843 0.921569 1
0.529412 0.807843 0.921569 1
0.529412 0.807843 0.921569 1
0.529412 0.807843 0.921569 1
0.529412 0.807843 0.921569 1
0.529412 0.807843 0.921569 1
0.529412 0.807843 0.921569 1
0.529412 0.807843 0.921569 1
0.529412 0.807843 0.921569 1
0.529412 0.807843 0.921569 1
0.529412 0.807843 0.921569 1
0.529412 0.807843 0.921569 1
0.529412 0.807843 0.921569 1
0.529412 0.807843 0.921569 1
0.529412 0.807843 0.921569 1
0.529412 0.807843 0.921569 1
0.529412 0.807843 0.921569 1
0.529412 0.807843 0.921569 1
0.529412 0.807843 0.921569 1
0.529412 0.807843 0.921569 1
0.529412 0.807843 0.921569 1
0.529412 0.807843 0.921569 1
0.529412 0.807843 0.921569 1
0.529412 0.807843 0.921569 1
0.529412 0.807843 0.921569 1
0.529412 0.807843 0.921569 1
0.529412 0.807843 0.921569 1
0.529412 0.807843 0.921569 1
0.529412 0.807843 0.921569 1
0.529412 0.807843 0.921569 1
0.529412 0.807843 0.921569 1
0.529412 0.807843 0.921569 1
0.529412 0.807843 0.921569 1
0.529412 0.807843 0.921569 1
0.529412 0.807843 0.921569 1
0.529412 0.807843 0.921569 1
0.529412 0.807843 0.921569 1
0.529412 0.807843 0.921569 1
0.529412 0.807843 0.921569 1
0.529412 0.807843 0.921569 1
0.529412 0.807843 0.921569 1
0.529412 0.807843 0.921569 1
0.529412 0.807843 0.921569 1
0.529412 0.807843 0.921569 1
0.529412 0.807843 0.921569 1
0.529412 0.807843 0.921569 1
0.529412 0.807843 0.921569 1
0.529412 0.807843 0.921569 1
0.529412 0.807843 0.921569 1
0.529412 0.807843 0.921569 1
0.529412 0.807843 0.921569 1
0.529412 0.807843 0.921569 1
0.529412 0.807843 0.921569 1
0.529412 0.807843 0.921569 1
0.529412 0.807843 0.921569 1
0.529412 0.807843 0.921569 1
0.529412 0.807843 0.921569 1
0.529412 0.807843 0.921569 1
0.529412 0.807843 0.921569 1
0.529412 0.807843 0.921569 1
0.529412 0.807843 0.921569 1
0.529412 0.807843 0.921569 1
0.529412 0.807843 0.921569 1
0.529412 0.807843 0.921569 1
0.529412 0.807843 0.921569 1
0.529412 0.807843 0.921569 1
0.529412 0.807843 0.921569 1
0.529412 0.807843 0.921569 1
0.529412 0.807843 0.921569 1
0.529412 0.807843 0.921569 1
0.529412 0.807843 0.921569 1
0.529412 0.807843 0.921569 1
0.529412 0.807843 0.921569 1
0.529412 0.807843 0.921569 1
0.529412 0.807843 0.921569 1
0.529412 0.807843 0.921569 1
0.529412 0.807843 0.921569 1
0.529412 0.807843 0.921569 1
0.529412 0.807843 0.921569 1
0.529412 0.807843 0.921569 1
0.529412 0.807843 0.921569 1
0.529412 0.807843 0.921569 1
0.529412 0.807843 0.921569 1
0.529412 0.807843 0.921569 1
0.529412 0.807843 0.921569 1
0.529412 0.807843 0.921569 1
0.529412 0.807843 0.921569 1
0.529412 0.807843 0.921569 1
0.529412 0.807843 0.921569 1
0.529412 0.807843 0.921569 1
0.529412 0.807843 0.921569 1
0.529412 0.807843 0.921569 1
0.529412 0.807843 0.921569 1
0.529412 0.807843 0.921569 1
0.529412 0.807843 0.921569 1
0.529412 0.807843 0.921569 1
0.529412 0.807843 0.921569 1
0.529412 0.807843 0.921569 1
0.529412 0.807843 0.921569 1
0.529412 0.807843 0.921569 1
0.529412 0.807843 0.921569 1
0.529412 0.807843 0.921569 1
0.529412 0.807843 0.921569 1
0.529412 0.807843 0.921569 1
0.529412 0.807843 0.921569 1
0.529412 0.807843 0.921569 1
0.529412 0.807843 0.921569 1
0.529412 0.807843 0.921569 1
0.529412 0.807843 0.921569 1
0.529412 0.807843 0.921569 1
0.529412 0.807843 0.921569 1
0.529412 0.807843 0.921569 1
0.529412 0.807843 0.921569 1
0.529412 0.807843 0.921569 1
0.529412 0.807843 0.921569 1
0.529412 0.807843 0.921569 1
0.529412 0.807843 0.921569 1
0.529412 0.807843 0.921569 1
0.529412 0.807843 0.921569 1
0.529412 0.807843 0.921569 1
0.529412 0.807843 0.921569 1
0.529412 0.807843 0.921569 1
0.529412 0.807843 0.921569 1
0.529412 0.807843 0.921569 1
0.529412 0.807843 0.921569 1
0.529412 0.807843 0.921569 1
0.529412 0.807843 0.921569 1
0.529412 0.807843 0.921569 1
0.529412 0.807843 0.921569 1
0.529412 0.807843 0.921569 1
0.529412 0.807843 0.921569 1
0.529412 0.807843 0.921569 1
0.529412 0.807843 0.921569 1
0.529412 0.807843 0.921569 1
0.529412 0.807843 0.921569 1
0.529412 0.807843 0.921569 1
0.529412 0.807843 0.921569 1
0.529412 0.807843 0.921569 1
0.529412 0.807843 0.921569 1
0.529412 0.807843 0.921569 1
0.529412 0.807843 0.921569 1
0.529412 0.807843 0.921569 1
0.529412 0.807843 0.921569 1
0.529412 0.807843 0.921569 1
0.529412 0.807843 0.921569 1
0.529412 0.807843 0.921569 1
0.529412 0.807843 0.921569 1
0.529412 0.807843 0.921569 1
0.529412 0.807843 0.921569 1
0.529412 0.807843 0.921569 1
0.529412 0.807843 0.921569 1
0.529412 0.807843 0.921569 1
0.529412 0.807843 0.921569 1
0.529412 0.807843 0.921569 1
0.529412 0.807843 0.921569 1
0.529412 0.807843 0.921569 1
0.529412 0.807843 0.921569 1
0.529412 0.807843 0.921569 1
0.529412 0.807843 0.921569 1
0.529412 0.807843 0.921569 1
0.529412 0.807843 0.921569 1
0.529412 0.807843 0.921569 1
0.529412 0.807843 0.921569 1
0.529412 0.807843 0.921569 1
0.529412 0.807843 0.921569 1
0.529412 0.807843 0.921569 1
0.529412 0.807843 0.921569 1
0.529412 0.807843 0.921569 1
0.529412 0.807843 0.921569 1
0.529412 0.807843 0.921569 1
0.529412 0.807843 0.921569 1
0.529412 0.807843 0.921569 1
0.529412 0.807843 0.921569 1
0.529412 0.807843 0.921569 1
0.529412 0.807843 0.921569 1
0.529412 0.807843 0.921569 1
0.529412 0.807843 0.921569 1
0.529412 0.807843 0.921569 1
0.529412 0.807843 0.921569 1
0.529412 0.807843 0.921569 1
0.529412 0.807843 0.921569 1
0.529412 0.807843 0.921569 1
0.529412 0.807843 0.921569 1
0.529412 0.807843 0.921569 1
0.529412 0.807843 0.921569 1
0.529412 0.807843 0.921569 1
0.529412 0.807843 0.921569 1
0.529412 0.807843 0.921569 1
0.529412 0.807843 0.921569 1
0.529412 0.807843 0.921569 1
0.529412 0.807843 0.921569 1
0.529412 0.807843 0.921569 1
0.529412 0.807843 0.921569 1
0.529412 0.807843 0.921569 1
0.529412 0.807843 0.921569 1
0.529412 0.807843 0.921569 1
0.529412 0.807843 0.921569 1
0.529412 0.807843 0.921569 1
0.529412 0.807843 0.921569 1
0.529412 0.807843 0.921569 1
0.529412 0.807843 0.921569 1
0.529412 0.807843 0.921569 1
0.529412 0.807843 0.921569 1
0.529412 0.807843 0.921569 1
0.529412 0.807843 0.921569 1
0.529412 0.807843 0.921569 1
0.529412 0.807843 0.921569 1
0.529412 0.807843 0.921569 1
0.529412 0.807843 0.921569 1
0.529412 0.807843 0.921569 1
0.529412 0.807843 0.921569 1
0.529412 0.807843 0.921569 1
0.529412 0.807843 0.921569 1
0.529412 0.807843 0.921569 1
0.529412 0.807843 0.921569 1
0.529412 0.807843 0.921569 1
0.529412 0.807843 0.921569 1
0.529412 0.807843 0.921569 1
0.529412 0.807843 0.921569 1
0.529412 0.807843 0.921569 1
0.529412 0.807843 0.921569 1
0.529412 0.807843 0.921569 1
0.529412 0.807843 0.921569 1
0.529412 0.807843 0.921569 1
0.529412 0.807843 0.921569 1
0.529412 0.807843 0.921569 1
0.529412 0.807843 0.921569 1
0.529412 0.807843 0.921569 1
0.529412 0.807843 0.921569 1
0.529412 0.807843 0.921569 1
0.529412 0.807843 0.921569 1
0.529412 0.807843 0.921569 1
0.529412 0.807843 0.921569 1
0.529412 0.807843 0.921569 1
0.529412 0.807843 0.921569 1
0.529412 0.807843 0.921569 1
0.529412 0.807843 0.921569 1
0.529412 0.807843 0.921569 1
0.529412 0.807843 0.921569 1
0.529412 0.807843 0.921569 1
0.529412 0.807843 0.921569 1
0.529412 0.807843 0.921569 1
0.529412 0.807843 0.921569 1
0.529412 0.807843 0.921569 1
0.529412 0.807843 0.921569 1
0.529412 0.807843 0.921569 1
0.529412 0.807843 0.921569 1
0.529412 0.807843 0.921569 1
0.529412 0.807843 0.921569 1
0.529412 0.807843 0.921569 1
0.529412 0.807843 0.921569 1
0.529412 0.807843 0.921569 1
0.529412 0.807843 0.921569 1
0.529412 0.807843 0.921569 1
0.529412 0.807843 0.921569 1
0.529412 0.807843 0.921569 1
0.529412 0.807843 0.921569 1
0.529412 0.807843 0.921569 1
0.529412 0.807843 0.921569 1
0.529412 0.807843 0.921569 1
0.529412 0.807843 0.921569 1
0.529412 0.807843 0.921569 1
0.529412 0.807843 0.921569 1
0.529412 0.807843 0.921569 1
0.529412 0.807843 0.921569 1
0.529412 0.807843 0.921569 1
0.529412 0.807843 0.921569 1
0.529412 0.807843 0.921569 1
0.529412 0.807843 0.921569 1
0.529412 0.807843 0.921569 1
0.529412 0.807843 0.921569 1
0.529412 0.807843 0.921569 1
0.529412 0.807843 0.921569 1
0.529412 0.807843 0.921569 1
0.529412 0.807843 0.921569 1
0.529412 0.807843 0.921569 1
0.529412 0.807843 0.921569 1
0.529412 0.807843 0.921569 1
0.529412 0.807843 0.921569 1
0.529412 0.807843 0.921569 1
0.529412 0.807843 0.921569 1
0.529412 0.807843 0.921569 1
0.529412 0.807843 0.921569 1
0.529412 0.807843 0.921569 1
0.529412 0.807843 0.921569 1
0.529412 0.807843 0.921569 1
0.529412 0.807843 0.921569 1
0.529412 0.807843 0.921569 1
0.529412 0.807843 0.921569 1
0.529412 0.807843 0.921569 1
0.529412 0.807843 0.921569 1
0.529412 0.807843 0.921569 1
0.529412 0.807843 0.921569 1
0.529412 0.807843 0.921569 1
0.529412 0.807843 0.921569 1
0.529412 0.807843 0.921569 1
0.529412 0.807843 0.921569 1
0.529412 0.807843 0.921569 1
0.529412 0.807843 0.921569 1
0.529412 0.807843 0.921569 1
0.529412 0.807843 0.921569 1
0.529412 0.807843 0.921569 1
0.529412 0.807843 0.921569 1
0.529412 0.807843 0.921569 1
0.529412 0.807843 0.921569 1
0.529412 0.807843 0.921569 1
0.529412 0.807843 0.921569 1
0.529412 0.807843 0.921569 1
0.529412 0.807843 0.921569 1
0.529412 0.807843 0.921569 1
0.529412 0.807843 0.921569 1
0.529412 0.807843 0.921569 1
0.529412 0.807843 0.921569 1
0.529412 0.807843 0.921569 1
0.529412 0.807843 0.921569 1

