# vtk DataFile Version 3.0
Gocad TSurf to VTK
ASCII
DATASET POLYDATA
POINTS 431 float
21586600.000 4545685.000 -370.000
21586375.000 4545602.500 -223.750
21586350.000 4545825.000 -237.500
21586250.000 4545760.000 -217.500
21586600.000 4545925.000 -327.500
21586700.000 4545490.000 -405.000
21586750.000 4545752.500 -358.750
21586400.000 4545380.000 -210.000
21585850.000 4545575.000 245.000
21586575.000 4545270.000 -213.750
21586800.000 4545352.500 -360.000
21586500.000 4545070.000 -50.000
21587000.000 4545260.000 -307.500
21586075.000 4545045.000 372.500
21586600.000 4544760.000 110.000
21585900.000 4545140.000 460.000
21586010.766 4544824.320 468.307
21586051.500 4544732.426 465.333
21586059.945 4544713.359 464.715
21586120.109 4544577.641 460.322
21586127.875 4544514.648 460.067
21586275.000 4544222.500 381.250
21586750.000 4544385.000 41.250
21586141.836 4544465.258 459.170
21586187.867 4544251.480 471.705
21586300.000 4543845.000 467.500
21586450.000 4543875.000 287.500
21586400.000 4543482.500 463.750
21586187.867 4544251.480 471.705
21586625.000 4543527.500 193.750
21586500.000 4543120.000 460.000
21586800.000 4543990.000 12.500
21586900.000 4543605.000 -36.250
21586800.000 4543180.000 100.000
21587150.000 4544100.000 -195.000
21587625.000 4543770.000 -190.000
21587125.000 4544520.000 -210.000
21587400.000 4544145.000 -195.000
21587100.000 4544940.000 -225.000
21587550.000 4544632.500 -165.000
21587100.000 4545125.000 -252.500
21587400.000 4545030.000 -265.000
21587100.000 4545310.000 -280.000
21586950.000 4545420.000 -348.750
21587325.000 4545192.500 -282.500
21587250.000 4545355.000 -300.000
21587400.000 4545400.000 -250.000
21587100.000 4545495.000 -307.500
21587400.000 4545585.000 -242.500
21587100.000 4545680.000 -335.000
21587450.000 4545415.000 -200.000
21587475.000 4545237.500 -182.500
21587425.000 4545592.500 -217.500
21587400.000 4545770.000 -235.000
21587200.000 4545932.500 -203.750
21586975.000 4545865.000 -278.750
21587000.000 4546095.000 -172.500
21586750.000 4546000.000 -250.000
21586800.000 4546257.500 -141.250
21586725.000 4546235.000 -166.250
21586400.000 4546075.000 -300.000
21586600.000 4546420.000 -110.000
21586300.000 4546270.000 -265.000
21586475.000 4546567.500 -127.500
21586200.000 4546430.000 -255.000
21586525.000 4546600.000 -90.000
21586350.000 4546715.000 -145.000
21586450.000 4546780.000 -70.000
21586200.000 4546640.000 -222.500
21586100.000 4546590.000 -245.000
21586225.000 4546862.500 -162.500
21585950.000 4546717.500 -225.000
21586375.000 4546960.000 -50.000
21586100.000 4547010.000 -180.000
21586300.000 4547140.000 -30.000
21585900.000 4546910.000 -225.000
21585950.000 4547190.000 -170.000
21585800.000 4547115.000 -203.750
21586150.000 4547322.500 -36.250
21585900.000 4547440.000 -117.500
21586200.000 4547342.500 -12.500
21586100.000 4547545.000 5.000
21586000.000 4547505.000 -42.500
21586000.000 4547747.500 22.500
21585850.000 4547687.500 -48.750
21585900.000 4547950.000 40.000
21585700.000 4547870.000 -55.000
21585500.000 4547730.000 -140.000
21585825.000 4548067.500 -18.750
21585675.000 4548007.500 -90.000
21585750.000 4548185.000 -77.500
21585600.000 4547952.500 -121.250
21585600.000 4548100.000 -160.000
21585500.000 4548035.000 -187.500
21585650.000 4548145.000 -125.000
21585550.000 4548215.000 -212.500
21585625.000 4548282.500 -160.000
21585400.000 4548117.500 -253.750
21585400.000 4547965.000 -230.000
21585500.000 4548330.000 -265.000
21585300.000 4548200.000 -320.000
21585100.000 4548050.000 -195.000
21585350.000 4548472.500 -247.500
21585175.000 4548342.500 -278.750
21585600.000 4548420.000 -195.000
21585500.000 4548600.000 -156.250
21585675.000 4548302.500 -136.250
21585250.000 4548660.000 -195.000
21585400.000 4548780.000 -117.500
21585300.000 4548960.000 -78.750
21585000.000 4548725.000 -226.250
21585050.000 4548485.000 -237.500
21585200.000 4549140.000 -40.000
21584750.000 4549155.000 -335.000
21584800.000 4548770.000 -155.000
21585075.000 4549242.500 -141.250
21584825.000 4549447.500 -343.750
21585125.000 4549272.500 -117.500
21585050.000 4549405.000 -195.000
21584975.000 4549537.500 -272.500
21584900.000 4549670.000 -350.000
21584650.000 4549615.000 -413.750
21584525.000 4549467.500 -440.000
21584800.000 4549705.000 -342.500
21584700.000 4549740.000 -335.000
21584825.000 4549732.500 -307.500
21584750.000 4549795.000 -265.000
21584600.000 4549775.000 -327.500
21584675.000 4549857.500 -222.500
21584600.000 4549680.000 -382.500
21584550.000 4549745.000 -351.250
21584500.000 4549595.000 -390.000
21584375.000 4549582.500 -370.000
21584450.000 4549525.000 -405.000
21584500.000 4549810.000 -320.000
21584325.000 4549545.000 -358.750
21584600.000 4549920.000 -180.000
21584500.000 4549877.500 -298.750
21584450.000 4549847.500 -316.250
21584575.000 4549960.000 -193.750
21584500.000 4549945.000 -277.500
21584550.000 4550000.000 -207.500
21584525.000 4550040.000 -221.250
21584500.000 4550080.000 -235.000
21584300.000 4549960.000 -305.000
21584350.000 4550212.500 -256.250
21584125.000 4550055.000 -295.000
21584375.000 4550247.500 -256.250
21584200.000 4550345.000 -277.500
21584250.000 4550415.000 -277.500
21583950.000 4550150.000 -285.000
21584000.000 4550447.500 -316.250
21583975.000 4549912.500 -287.500
21583850.000 4550050.000 -280.000
21584100.000 4549770.000 -295.000
21583825.000 4549777.500 -223.750
21583750.000 4549965.000 -237.500
21584100.000 4549610.000 -260.000
21583600.000 4549825.000 -125.000
21583450.000 4549720.000 -5.000
21583450.000 4549942.500 -82.500
21583675.000 4550152.500 -251.250
21583300.000 4550060.000 -40.000
21583075.000 4549642.500 236.250
21583600.000 4550340.000 -265.000
21583775.000 4550245.000 -275.000
21583900.000 4550610.000 -320.000
21584125.000 4550582.500 -298.750
21584000.000 4550750.000 -320.000
21583250.000 4549555.000 167.500
21582900.000 4549730.000 305.000
21583000.000 4549350.000 425.000
21582850.000 4549465.000 481.250
21582775.000 4549400.000 572.500
21582700.000 4549580.000 515.000
21582700.000 4549580.000 530.000
21582500.000 4549400.000 545.000
21582625.000 4549265.000 583.750
21582850.000 4549220.000 615.000
21582475.000 4549067.500 508.750
21582650.000 4548995.000 572.500
21582300.000 4549150.000 445.000
21582300.000 4549140.000 445.000
21582250.000 4548895.000 542.500
21582500.000 4548880.000 595.000
21582000.000 4548910.000 490.000
21582016.594 4548680.270 659.201
21582250.000 4548738.344 655.995
21581911.117 4548654.023 660.650
21581812.688 4548629.531 662.002
21581638.766 4548577.660 670.619
21582381.625 4548771.094 654.187
21582561.648 4548815.887 651.715
21582647.891 4548837.348 650.530
21582733.344 4548849.676 655.828
21582750.000 4548865.000 647.500
21582813.242 4548861.207 660.781
21582875.000 4548995.000 661.250
21582910.836 4548953.434 672.358
21582911.438 4548955.645 672.546
21582750.000 4549130.000 622.500
21582956.719 4548963.879 675.473
21583300.000 4549120.000 335.000
21583200.000 4549272.500 327.500
21583016.438 4548886.852 673.118
21583023.188 4548880.098 671.789
21583153.773 4548837.293 649.390
21583172.289 4548834.953 646.356
21583375.000 4548880.000 545.000
21583500.000 4549095.000 285.000
21583310.063 4548823.719 624.008
21583397.984 4548806.441 609.364
21583700.000 4549070.000 235.000
21583405.430 4548804.887 608.121
21583520.367 4548727.777 586.914
21583700.000 4548620.000 545.000
21584150.000 4548605.000 217.500
21583479.656 4548746.234 594.091
21583600.000 4548665.000 562.500
21583439.539 4548764.418 601.163
21583500.000 4548710.000 580.000
21583400.000 4548782.340 608.132
21583400.000 4548755.000 597.500
21583300.000 4548800.000 615.000
21583361.031 4548800.000 615.000
21583300.000 4548807.043 624.978
21583216.742 4548816.652 638.589
21583217.477 4548814.258 638.383
21583225.000 4548812.500 636.250
21583217.633 4548813.727 638.337
21584100.000 4548950.000 -55.000
21583821.164 4548532.766 531.672
21583998.672 4548419.414 499.137
21584075.898 4548353.055 500.321
21584102.461 4548330.227 500.729
21584200.000 4548260.000 490.000
21584600.000 4548620.000 15.000
21584350.000 4548785.000 -20.000
21584700.000 4548220.000 85.000
21584725.000 4548477.500 -37.500
21584350.000 4548150.000 406.250
21584500.000 4548040.000 322.500
21584425.000 4547750.000 520.000
21584425.000 4547750.000 520.000
21584500.000 4547580.000 530.000
21584650.000 4547930.000 238.750
21584850.000 4547702.500 192.500
21584750.000 4548020.000 120.000
21584625.000 4547522.500 473.750
21584875.000 4547407.500 361.250
21584550.000 4547462.500 540.000
21584600.000 4547345.000 550.000
21584525.000 4547460.000 540.000
21584550.000 4547340.000 550.000
21584575.000 4547220.000 560.000
21584586.750 4547163.605 564.700
21584600.000 4547193.008 562.408
21584633.266 4547266.824 556.653
21584716.883 4547138.703 549.859
21584727.336 4547122.816 549.007
21584734.945 4547110.539 548.630
21585025.000 4547115.000 371.250
21585175.000 4547205.000 205.000
21584829.500 4546958.602 543.942
21584851.195 4546923.738 542.866
21585050.000 4546880.000 437.500
21584935.445 4546788.355 538.689
21585013.273 4546663.301 534.831
21585085.383 4546547.434 531.256
21585600.000 4546965.000 -71.250
21585350.000 4547060.000 105.000
21585131.695 4546445.180 529.354
21585700.000 4546770.000 -95.000
21585136.844 4546432.105 529.166
21585153.531 4546379.410 528.705
21585275.000 4546310.000 435.000
21585750.000 4546390.000 -32.500
21585232.664 4546220.949 525.225
21585400.000 4545982.500 468.750
21585625.000 4546110.000 165.000
21585232.664 4546220.949 525.225
21585400.000 4545982.500 468.750
21585500.000 4545840.000 435.000
21585800.000 4546010.000 30.000
21585950.000 4545852.500 -30.000
21585775.000 4546200.000 -1.250
21586100.000 4546140.000 -225.000
21586000.000 4546297.500 -192.500
21586000.000 4546525.000 -225.000
21586175.000 4545950.000 -221.250
21585600.000 4545665.000 441.250
21585800.000 4545315.000 453.750
21585600.000 4547230.000 -112.500
21585800.000 4547370.000 -160.000
21585500.000 4547160.000 -47.500
21585450.000 4547390.000 -56.250
[...]
POINT_DATA 431
COLOR_SCALARS GocadColor 4
0.392157 0.584314 0.929412 1
0.392157 0.584314 0.929412 1
0.392157 0.584314 0.929412 1
0.392157 0.584314 0.929412 1
0.392157 0.584314 0.929412 1
0.392157 0.584314 0.929412 1
0.392157 0.584314 0.929412 1
0.392157 0.584314 0.929412 1
0.392157 0.584314 0.929412 1
0.392157 0.584314 0.929412 1
0.392157 0.584314 0.929412 1
0.392157 0.584314 0.929412 1
0.392157 0.584314 0.929412 1
0.392157 0.584314 0.929412 1
0.392157 0.584314 0.929412 1
0.392157 0.584314 0.929412 1
0.392157 0.584314 0.929412 1
0.392157 0.584314 0.929412 1
0.392157 0.584314 0.929412 1
0.392157 0.584314 0.929412 1
0.392157 0.584314 0.929412 1
0.392157 0.584314 0.929412 1
0.392157 0.584314 0.929412 1
0.392157 0.584314 0.929412 1
0.392157 0.584314 0.929412 1
0.392157 0.584314 0.929412 1
0.392157 0.584314 0.929412 1
0.392157 0.584314 0.929412 1
0.392157 0.584314 0.929412 1
0.392157 0.584314 0.929412 1
0.392157 0.584314 0.929412 1
0.392157 0.584314 0.929412 1
0.392157 0.584314 0.929412 1
0.392157 0.584314 0.929412 1
0.392157 0.584314 0.929412 1
0.392157 0.584314 0.929412 1
0.392157 0.584314 0.929412 1
0.392157 0.584314 0.929412 1
0.392157 0.584314 0.929412 1
0.392157 0.584314 0.929412 1
0.392157 0.584314 0.929412 1
0.392157 0.584314 0.929412 1
0.392157 0.584314 0.929412 1
0.392157 0.584314 0.929412 1
0.392157 0.584314 0.929412 1
0.392157 0.584314 0.929412 1
0.392157 0.584314 0.929412 1
0.392157 0.584314 0.929412 1
0.392157 0.584314 0.929412 1
0.392157 0.584314 0.929412 1
0.392157 0.584314 0.929412 1
0.392157 0.584314 0.929412 1
0.392157 0.584314 0.929412 1
0.392157 0.584314 0.929412 1
0.392157 0.584314 0.929412 1
0.392157 0.584314 0.929412 1
0.392157 0.584314 0.929412 1
0.392157 0.584314 0.929412 1
0.392157 0.584314 0.929412 1
0.392157 0.584314 0.929412 1
0.392157 0.584314 0.929412 1
0.392157 0.584314 0.929412 1
0.392157 0.584314 0.929412 1
0.392157 0.584314 0.929412 1
0.392157 0.584314 0.929412 1
0.392157 0.584314 0.929412 1
0.392157 0.584314 0.929412 1
0.392157 0.584314 0.929412 1
0.392157 0.584314 0.929412 1
0.392157 0.584314 0.929412 1
0.392157 0.584314 0.929412 1
0.392157 0.584314 0.929412 1
0.392157 0.584314 0.929412 1
0.392157 0.584314 0.929412 1
0.392157 0.584314 0.929412 1
0.392157 0.584314 0.929412 1
0.392157 0.584314 0.929412 1
0.392157 0.584314 0.929412 1
0.392157 0.584314 0.929412 1
0.392157 0.584314 0.929412 1
0.392157 0.584314 0.929412 1
0.392157 0.584314 0.929412 1
0.392157 0.584314 0.929412 1
0.392157 0.584314 0.929412 1
0.392157 0.584314 0.929412 1
0.392157 0.584314 0.929412 1
0.392157 0.584314 0.929412 1
0.392157 0.584314 0.929412 1
0.392157 0.584314 0.929412 1
0.392157 0.584314 0.929412 1
0.392157 0.584314 0.929412 1
0.392157 0.584314 0.929412 1
0.392157 0.584314 0.929412 1
0.392157 0.584314 0.929412 1
0.392157 0.584314 0.929412 1
0.392157 0.584314 0.929412 1
0.392157 0.584314 0.929412 1
0.392157 0.584314 0.929412 1
0.392157 0.584314 0.929412 1
0.392157 0.584314 0.929412 1
0.392157 0.584314 0.929412 1
0.392157 0.584314 0.929412 1
0.392157 0.584314 0.929412 1
0.392157 0.584314 0.929412 1
0.392157 0.584314 0.929412 1
0.392157 0.584314 0.929412 1
0.392157 0.584314 0.929412 1
0.392157 0.584314 0.929412 1
0.392157 0.584314 0.929412 1
0.392157 0.584314 0.929412 1
0.392157 0.584314 0.929412 1
0.392157 0.584314 0.929412 1
0.392157 0.584314 0.929412 1
0.392157 0.584314 0.929412 1
0.392157 0.584314 0.929412 1
0.392157 0.584314 0.929412 1
0.392157 0.584314 0.929412 1
0.392157 0.584314 0.929412 1
0.392157 0.584314 0.929412 1
0.392157 0.584314 0.929412 1
0.392157 0.584314 0.929412 1
0.392157 0.584314 0.929412 1
0.392157 0.584314 0.929412 1
0.392157 0.584314 0.929412 1
0.392157 0.584314 0.929412 1
0.392157 0.584314 0.929412 1
0.392157 0.584314 0.929412 1
0.392157 0.584314 0.929412 1
0.392157 0.584314 0.929412 1
0.392157 0.584314 0.929412 1
0.392157 0.584314 0.929412 1
0.392157 0.584314 0.929412 1
0.392157 0.584314 0.929412 1
0.392157 0.584314 0.929412 1
0.392157 0.584314 0.929412 1
0.392157 0.584314 0.929412 1
0.392157 0.584314 0.929412 1
0.392157 0.584314 0.929412 1
0.392157 0.584314 0.929412 1
0.392157 0.584314 0.929412 1
0.392157 0.584314 0.929412 1
0.392157 0.584314 0.929412 1
0.392157 0.584314 0.929412 1
0.392157 0.584314 0.929412 1
0.392157 0.584314 0.929412 1
0.392157 0.584314 0.929412 1
0.392157 0.584314 0.929412 1
0.392157 0.584314 0.929412 1
0.392157 0.584314 0.929412 1
0.392157 0.584314 0.929412 1
0.392157 0.584314 0.929412 1
0.392157 0.584314 0.929412 1
0.392157 0.584314 0.929412 1
0.392157 0.584314 0.929412 1
0.392157 0.584314 0.929412 1
0.392157 0.584314 0.929412 1
0.392157 0.584314 0.929412 1
0.392157 0.584314 0.929412 1
0.392157 0.584314 0.929412 1
0.392157 0.584314 0.929412 1
0.392157 0.584314 0.929412 1
0.392157 0.584314 0.929412 1
0.392157 0.584314 0.929412 1
0.392157 0.584314 0.929412 1
0.392157 0.584314 0.929412 1
0.392157 0.584314 0.929412 1
0.392157 0.584314 0.929412 1
0.392157 0.584314 0.929412 1
0.392157 0.584314 0.929412 1
0.392157 0.584314 0.929412 1
0.392157 0.584314 0.929412 1
0.392157 0.584314 0.929412 1
0.392157 0.584314 0.929412 1
0.392157 0.584314 0.929412 1
0.392157 0.584314 0.929412 1
0.392157 0.584314 0.929412 1
0.392157 0.584314 0.929412 1
0.392157 0.584314 0.929412 1
0.392157 0.584314 0.929412 1
0.392157 0.584314 0.929412 1
0.392157 0.584314 0.929412 1
0.392157 0.584314 0.929412 1
0.392157 0.584314 0.929412 1
0.392157 0.584314 0.929412 1
0.392157 0.584314 0.929412 1
0.392157 0.584314 0.929412 1
0.392157 0.584314 0.929412 1
0.392157 0.584314 0.929412 1
0.392157 0.584314 0.929412 1
0.392157 0.584314 0.929412 1
0.392157 0.584314 0.929412 1
0.392157 0.584314 0.929412 1
0.392157 0.584314 0.929412 1
0.392157 0.584314 0.929412 1
0.392157 0.584314 0.929412 1
0.392157 0.584314 0.929412 1
0.392157 0.584314 0.929412 1
0.392157 0.584314 0.929412 1
0.392157 0.584314 0.929412 1
0.392157 0.584314 0.929412 1
0.392157 0.584314 0.929412 1
0.392157 0.584314 0.929412 1
0.392157 0.584314 0.929412 1
0.392157 0.584314 0.929412 1
0.392157 0.584314 0.929412 1
0.392157 0.584314 0.929412 1
0.392157 0.584314 0.929412 1
0.392157 0.584314 0.929412 1
0.392157 0.584314 0.929412 1
0.392157 0.584314 0.929412 1
0.392157 0.584314 0.929412 1
0.392157 0.584314 0.929412 1
0.392157 0.584314 0.929412 1
0.392157 0.584314 0.929412 1
0.392157 0.584314 0.929412 1
0.392157 0.584314 0.929412 1
0.392157 0.584314 0.929412 1
0.392157 0.584314 0.929412 1
0.392157 0.584314 0.929412 1
0.392157 0.584314 0.929412 1
0.392157 0.584314 0.929412 1
0.392157 0.584314 0.929412 1
0.392157 0.584314 0.929412 1
0.392157 0.584314 0.929412 1
0.392157 0.584314 0.929412 1
0.392157 0.584314 0.929412 1
0.392157 0.584314 0.929412 1
0.392157 0.584314 0.929412 1
0.392157 0.584314 0.929412 1
0.392157 0.584314 0.929412 1
0.392157 0.584314 0.929412 1
0.392157 0.584314 0.929412 1
0.392157 0.584314 0.929412 1
0.392157 0.584314 0.929412 1
0.392157 0.584314 0.929412 1
0.392157 0.584314 0.929412 1
0.392157 0.584314 0.929412 1
0.392157 0.584314 0.929412 1
0.392157 0.584314 0.929412 1
0.392157 0.584314 0.929412 1
0.392157 0.584314 0.929412 1
0.392157 0.584314 0.929412 1
0.392157 0.584314 0.929412 1
0.392157 0.584314 0.929412 1
0.392157 0.584314 0.929412 1
0.392157 0.584314 0.929412 1
0.392157 0.584314 0.929412 1
0.392157 0.584314 0.929412 1
0.392157 0.584314 0.929412 1
0.392157 0.584314 0.929412 1
0.392157 0.584314 0.929412 1
0.392157 0.584314 0.929412 1
0.392157 0.584314 0.929412 1
0.392157 0.584314 0.929412 1
0.392157 0.584314 0.929412 1
0.392157 0.584314 0.929412 1
0.392157 0.584314 0.929412 1
0.392157 0.584314 0.929412 1
0.392157 0.584314 0.929412 1
0.392157 0.584314 0.929412 1
0.392157 0.584314 0.929412 1
0.392157 0.584314 0.929412 1
0.392157 0.584314 0.929412 1
0.392157 0.584314 0.929412 1
0.392157 0.584314 0.929412 1
0.392157 0.584314 0.929412 1
0.392157 0.584314 0.929412 1
0.392157 0.584314 0.929412 1
0.392157 0.584314 0.929412 1
0.392157 0.584314 0.929412 1
0.392157 0.584314 0.929412 1
0.392157 0.584314 0.929412 1
0.392157 0.584314 0.929412 1
0.392157 0.584314 0.929412 1
0.392157 0.584314 0.929412 1
0.392157 0.584314 0.929412 1
0.392157 0.584314 0.929412 1
0.392157 0.584314 0.929412 1
0.392157 0.584314 0.929412 1
0.392157 0.584314 0.929412 1
0.392157 0.584314 0.929412 1
0.392157 0.584314 0.929412 1
0.392157 0.584314 0.929412 1
0.392157 0.584314 0.929412 1
0.392157 0.584314 0.929412 1
0.392157 0.584314 0.929412 1
0.392157 0.584314 0.929412 1
0.392157 0.584314 0.929412 1
0.392157 0.584314 0.929412 1
0.392157 0.584314 0.929412 1
0.392157 0.584314 0.929412 1
0.392157 0.584314 0.929412 1
0.392157 0.584314 0.929412 1
0.392157 0.584314 0.929412 1
0.392157 0.584314 0.929412 1
0.392157 0.584314 0.929412 1
0.392157 0.584314 0.929412 1
0.392157 0.584314 0.929412 1
0.392157 0.584314 0.929412 1
0.392157 0.584314 0.929412 1
0.392157 0.584314 0.929412 1
0.392157 0.584314 0.929412 1
0.392157 0.584314 0.929412 1
0.392157 0.584314 0.929412 1
0.392157 0.584314 0.929412 1
0.392157 0.584314 0.929412 1
0.392157 0.584314 0.929412 1
0.392157 0.584314 0.929412 1
0.392157 0.584314 0.929412 1
0.392157 0.584314 0.929412 1
0.392157 0.584314 0.929412 1
0.392157 0.584314 0.929412 1
0.392157 0.584314 0.929412 1
0.392157 0.584314 0.929412 1
0.392157 0.584314 0.929412 1
0.392157 0.584314 0.929412 1
0.392157 0.584314 0.929412 1
0.392157 0.584314 0.929412 1
0.392157 0.584314 0.929412 1
0.392157 0.584314 0.929412 1
0.392157 0.584314 0.929412 1
0.392157 0.584314 0.929412 1
0.392157 0.584314 0.929412 1
0.392157 0.584314 0.929412 1
0.392157 0.584314 0.929412 1
0.392157 0.584314 0.929412 1
0.392157 0.584314 0.929412 1
0.392157 0.584314 0.929412 1
0.392157 0.584314 0.929412 1
0.392157 0.584314 0.929412 1
0.392157 0.584314 0.929412 1
0.392157 0.584314 0.929412 1
0.392157 0.584314 0.929412 1
0.392157 0.584314 0.929412 1
0.392157 0.584314 0.929412 1
0.392157 0.584314 0.929412 1
0.392157 0.584314 0.929412 1
0.392157 0.584314 0.929412 1
0.392157 0.584314 0.929412 1
0.392157 0.584314 0.929412 1
0.392157 0.584314 0.929412 1
0.392157 0.584314 0.929412 1
0.392157 0.584314 0.929412 1
0.392157 0.584314 0.929412 1
0.392157 0.584314 0.929412 1
0.392157 0.584314 0.929412 1
0.392157 0.584314 0.929412 1
0.392157 0.584314 0.929412 1
0.392157 0.584314 0.929412 1
0.392157 0.584314 0.929412 1
0.392157 0.584314 0.929412 1
0.392157 0.584314 0.929412 1
0.392157 0.584314 0.929412 1
0.392157 0.584314 0.929412 1
0.392157 0.584314 0.929412 1
0.392157 0.584314 0.929412 1
0.392157 0.584314 0.929412 1
0.392157 0.584314 0.929412 1
0.392157 0.584314 0.929412 1
0.392157 0.584314 0.929412 1
0.392157 0.584314 0.929412 1
0.392157 0.584314 0.929412 1
0.392157 0.584314 0.929412 1
0.392157 0.584314 0.929412 1
0.392157 0.584314 0.929412 1
0.392157 0.584314 0.929412 1
0.392157 0.584314 0.929412 1
0.392157 0.584314 0.929412 1
0.392157 0.584314 0.929412 1
0.392157 0.584314 0.929412 1
0.392157 0.584314 0.929412 1
0.392157 0.584314 0.929412 1
0.392157 0.584314 0.929412 1
0.392157 0.584314 0.929412 1
0.392157 0.584314 0.929412 1
0.392157 0.584314 0.929412 1
0.392157 0.584314 0.929412 1
0.392157 0.584314 0.929412 1
0.392157 0.584314 0.929412 1
0.392157 0.584314 0.929412 1
0.392157 0.584314 0.929412 1
0.392157 0.584314 0.929412 1
0.392157 0.584314 0.929412 1
0.392157 0.584314 0.929412 1
0.392157 0.584314 0.929412 1
0.392157 0.584314 0.929412 1
0.392157 0.584314 0.929412 1
0.392157 0.584314 0.929412 1
0.392157 0.584314 0.929412 1
0.392157 0.584314 0.929412 1
0.392157 0.584314 0.929412 1
0.392157 0.584314 0.929412 1
0.392157 0.584314 0.929412 1
0.392157 0.584314 0.929412 1
0.392157 0.584314 0.929412 1
0.392157 0.584314 0.929412 1
0.392157 0.584314 0.929412 1
0.392157 0.584314 0.929412 1
0.392157 0.584314 0.929412 1
0.392157 0.584314 0.929412 1
0.392157 0.584314 0.929412 1
0.392157 0.584314 0.929412 1
0.392157 0.584314 0.929412 1
0.392157 0.584314 0.929412 1
0.392157 0.584314 0.929412 1
0.392157 0.584314 0.929412 1
0.392157 0.584314 0.929412 1
0.392157 0.584314 0.929412 1
0.392157 0.584314 0.929412 1
0.392157 0.584314 0.929412 1
0.392157 0.584314 0.929412 1
0.392157 0.584314 0.929412 1
0.392157 0.584314 0.929412 1
0.392157 0.584314 0.929412 1
0.392157 0.584314 0.929412 1
0.392157 0.584314 0.929412 1
0.392157 0.584314 0.929412 1
0.392157 0.584314 0.929412 1
0.392157 0.584314 0.929412 1
0.392157 0.584314 0.929412 1
0.392157 0.584314 0.929412 1
0.392157 0.584314 0.929412 1
0.392157 0.584314 0.929412 1
0.392157 0.584314 0.929412 1
0.392157 0.584314 0.929412 1
0.392157 0.584314 0.929412 1
0.392157 0.584314 0.929412 1
0.392157 0.584314 0.929412 1
0.392157 0.584314 0.929412 1
0.392157 0.584314 0.929412 1
0.392157 0.584314 0.929412 1

