# vtk DataFile Version 3.0
Gocad TSurf to VTK
ASCII
DATASET POLYDATA
POINTS 224 float
21558400.000 4569530.000 -660.000
21558800.000 4569825.000 -710.000
21558800.000 4570005.000 -680.000
21559200.000 4570240.000 -740.000
21558400.000 4569410.000 -680.000
21558875.000 4569570.000 -702.500
21558000.000 4569055.000 -640.000
21558000.000 4568995.000 -650.000
21558450.000 4569240.000 -675.000
21557600.000 4568580.000 -620.000
21558025.000 4568910.000 -647.500
21558050.000 4568757.500 -622.500
21558500.000 4568935.000 -625.000
21558950.000 4569112.500 -627.500
21558200.000 4568577.500 -630.000
21557800.000 4568340.000 -630.000
21558600.000 4568815.000 -630.000
21558350.000 4568427.500 -630.000
21559000.000 4569052.500 -630.000
21558700.000 4568715.000 -630.000
21559400.000 4569290.000 -630.000
21559050.000 4569002.500 -630.000
21559300.000 4569900.000 -730.000
21559775.000 4569502.500 -657.500
21559625.000 4570085.000 -747.500
21559675.000 4570030.000 -747.500
21559550.000 4570340.000 -755.000
21559950.000 4570270.000 -765.000
21559200.000 4570480.000 -700.000
21559550.000 4570520.000 -725.000
21559900.000 4570440.000 -770.000
21559900.000 4570560.000 -750.000
21560250.000 4570540.000 -785.000
21560275.000 4570455.000 -782.500
21560250.000 4570600.000 -775.000
21560600.000 4570640.000 -800.000
21560425.000 4570290.000 -782.500
21560050.000 4570160.000 -765.000
21560800.000 4570420.000 -800.000
21560500.000 4570080.000 -737.500
21561100.000 4570737.500 -792.500
21561250.000 4570572.500 -792.500
21561325.000 4570362.500 -747.500
21561600.000 4570835.000 -785.000
21561700.000 4570725.000 -785.000
21561750.000 4570585.000 -755.000
21562100.000 4570932.500 -777.500
21562150.000 4570877.500 -777.500
21562175.000 4570807.500 -762.500
21562600.000 4571030.000 -770.000
21562250.000 4570770.000 -803.750
21561800.000 4570560.000 -782.500
21562700.000 4570980.000 -825.000
21562325.000 4570710.000 -822.500
21561850.000 4570520.000 -795.000
21562800.000 4570900.000 -850.000
21561375.000 4570330.000 -767.500
21561350.000 4570350.000 -761.250
21560900.000 4570140.000 -740.000
21560525.000 4569927.500 -712.500
21560100.000 4570020.000 -735.000
21560150.000 4569715.000 -685.000
21559700.000 4569960.000 -732.500
21559075.000 4568942.500 -610.000
21558750.000 4568595.000 -590.000
21558425.000 4568247.500 -570.000
21558000.000 4568140.000 -630.000
21558100.000 4567900.000 -550.000
21557525.000 4567840.000 -561.250
21557425.000 4567880.000 -598.750
21557675.000 4567690.000 -561.250
21557250.000 4567340.000 -492.500
21557750.000 4567510.000 -501.250
21557350.000 4567240.000 -492.500
21557400.000 4567120.000 -452.500
21557025.000 4566790.000 -423.750
21556975.000 4566840.000 -423.750
21557050.000 4566730.000 -403.750
21556700.000 4566340.000 -355.000
21556675.000 4566960.000 -536.250
21557050.000 4567420.000 -567.500
21556300.000 4566500.000 -505.000
21556625.000 4567020.000 -533.750
21556325.000 4566377.500 -450.000
21556250.000 4566402.500 -467.500
21556625.000 4566257.500 -337.500
21556350.000 4566255.000 -395.000
21556200.000 4566305.000 -430.000
21556550.000 4566175.000 -320.000
21556375.000 4566132.500 -340.000
21556150.000 4566207.500 -392.500
21556475.000 4566092.500 -302.500
21556400.000 4566010.000 -285.000
21556100.000 4566110.000 -355.000
21555975.000 4565822.500 -326.250
21555750.000 4565897.500 -378.750
21555550.000 4565635.000 -367.500
21555900.000 4566200.000 -495.000
21555600.000 4565965.000 -483.750
21556000.000 4566275.000 -497.500
21555900.000 4566312.500 -505.000
21555900.000 4566425.000 -515.000
21555600.000 4566440.000 -505.000
21555700.000 4566510.000 -515.000
21555500.000 4566370.000 -495.000
21555525.000 4566472.500 -501.250
21555300.000 4566092.500 -483.750
21555300.000 4565730.000 -472.500
21555100.000 4566500.000 -465.000
21555000.000 4566190.000 -461.250
21555225.000 4566570.000 -478.750
21555125.000 4566612.500 -440.000
21555150.000 4566725.000 -415.000
21554750.000 4566740.000 -357.500
21554900.000 4566810.000 -360.000
21554600.000 4566670.000 -355.000
21554875.000 4566285.000 -492.500
21554500.000 4566412.500 -410.000
21554950.000 4566227.500 -478.750
21554800.000 4565955.000 -492.500
21554900.000 4565880.000 -457.500
21555100.000 4565815.000 -472.500
21554650.000 4565682.500 -506.250
21554800.000 4565570.000 -453.750
21554650.000 4566070.000 -520.000
21554425.000 4565855.000 -547.500
21554400.000 4566155.000 -465.000
21554500.000 4565410.000 -520.000
21554200.000 4565640.000 -575.000
21554300.000 4565897.500 -520.000
21554300.000 4565317.500 -520.000
21554075.000 4565490.000 -561.250
21554325.000 4565270.000 -502.500
21554100.000 4565225.000 -520.000
21554475.000 4565157.500 -450.000
21554250.000 4565055.000 -450.000
21554700.000 4565260.000 -450.000
21554900.000 4565537.500 -461.250
21555000.000 4565495.000 -461.250
21555050.000 4565472.500 -426.250
21555400.000 4565685.000 -402.500
21555125.000 4565447.500 -408.750
21554150.000 4565130.000 -485.000
21554025.000 4564952.500 -450.000
21553900.000 4565132.500 -520.000
21553975.000 4564990.000 -467.500
21553950.000 4565340.000 -547.500
21553825.000 4565190.000 -533.750
21553950.000 4565460.000 -555.000
21554075.000 4565550.000 -565.000
21553825.000 4565370.000 -545.000
21553900.000 4565565.000 -547.500
21554050.000 4565602.500 -561.250
21553750.000 4565527.500 -533.750
21553750.000 4565680.000 -542.500
21553700.000 4565280.000 -535.000
21553600.000 4565490.000 -520.000
21553675.000 4565585.000 -531.250
21553325.000 4565185.000 -541.250
21553400.000 4565027.500 -552.500
21553250.000 4565342.500 -500.000
21553500.000 4565700.000 -465.000
21553000.000 4564985.000 -535.000
21553050.000 4564880.000 -562.500
21552750.000 4564627.500 -570.000
21553100.000 4564775.000 -570.000
21553400.000 4564847.500 -541.250
21552775.000 4564575.000 -583.750
21552800.000 4564522.500 -587.500
21553100.000 4564655.000 -562.500
21552500.000 4564270.000 -605.000
21552800.000 4564462.500 -583.750
21552825.000 4564415.000 -566.250
21553150.000 4564560.000 -527.500
21553150.000 4564540.000 -527.500
21552825.000 4564385.000 -566.250
21553475.000 4564695.000 -488.750
21553475.000 4564677.500 -488.750
21553475.000 4564705.000 -488.750
21553800.000 4564850.000 -450.000
21553700.000 4565040.000 -520.000
21553150.000 4564505.000 -527.500
21552825.000 4564332.500 -566.250
21552500.000 4564230.000 -605.000
21552500.000 4564160.000 -605.000
21553600.000 4565742.500 -490.000
21553550.000 4565765.000 -478.750
21553600.000 4565830.000 -492.500
21553700.000 4565785.000 -515.000
21553650.000 4565895.000 -506.250
21553800.000 4565827.500 -540.000
21553825.000 4565775.000 -553.750
21553700.000 4565960.000 -520.000
21553900.000 4565870.000 -565.000
21553925.000 4566137.500 -478.750
21554075.000 4566070.000 -512.500
21554150.000 4566315.000 -437.500
21554250.000 4566270.000 -460.000
21554375.000 4566492.500 -396.250
21554425.000 4566470.000 -407.500
21555050.000 4566880.000 -362.500
21555175.000 4566837.500 -390.000
21555350.000 4566640.000 -492.500
21555200.000 4566950.000 -365.000
21555475.000 4566710.000 -506.250
21555600.000 4566780.000 -520.000
21555575.000 4566677.500 -513.750
21555800.000 4567357.500 -428.750
21556100.000 4567230.000 -545.000
21555900.000 4566650.000 -535.000
21556400.000 4567765.000 -492.500
21556600.000 4567680.000 -570.000
21556325.000 4567132.500 -556.250
21557000.000 4568172.500 -556.250
21557100.000 4568130.000 -595.000
21556750.000 4567615.000 -577.500
21557175.000 4568097.500 -598.750
21557275.000 4568060.000 -591.250
21556950.000 4567540.000 -562.500
21556200.000 4566425.000 -502.500
21555900.000 4566537.500 -525.000
21556100.000 4566350.000 -500.000
21555800.000 4566580.000 -525.000
21555550.000 4566575.000 -507.500

POLYGONS 378 1512
3 49 46 47
3 7 9 10
3 18 16 19
3 101 100 99
3 26 24 27
3 180 179 145
3 206 223 103
3 163 162 164
3 201 112 202
3 72 73 74
3 168 171 169
3 80 76 71
3 190 189 188
3 128 131 130
3 62 23 61
3 116 117 124
3 131 146 133
3 125 127 122
3 127 132 134
3 58 39 59
3 173 178 166
3 21 19 63
3 193 190 191
3 79 78 76
3 81 78 79
3 216 218 217
3 80 218 82
3 44 41 45
3 192 189 190
3 78 83 85
3 221 87 219
3 223 105 102
3 32 30 33
3 159 166 180
3 84 87 83
3 33 27 37
3 81 84 83
3 153 155 150
3 176 174 177
3 108 109 106
3 205 203 204
3 97 104 98
3 36 37 60
3 14 66 17
3 46 44 47
3 192 193 194
3 38 58 42
3 111 108 110
3 26 3 24
3 127 136 123
3 38 35 36
3 97 93 99
3 75 78 77
3 178 179 180
3 148 150 146
3 207 208 210
3 119 122 120
3 178 176 179
3 182 183 184
3 202 112 110
3 213 211 214
3 60 37 62
3 62 22 23
3 4 8 5
3 16 14 17
3 168 170 171
3 21 63 20
3 212 82 215
3 5 13 20
3 24 22 25
3 151 148 152
3 35 32 33
3 142 145 143
3 164 170 167
3 205 204 206
3 90 93 89
3 102 100 103
3 214 215 216
3 3 22 24
3 172 173 169
3 60 62 61
3 120 123 137
3 3 28 2
3 163 158 162
3 185 161 157
3 188 185 154
3 130 131 133
3 147 180 144
3 140 107 139
3 180 155 159
3 88 86 89
3 12 11 14
3 87 90 86
3 107 121 138
3 164 167 163
3 98 106 107
3 48 45 51
3 13 12 16
3 189 187 188
3 39 60 59
3 82 81 79
3 128 152 149
3 159 155 158
3 167 170 168
3 22 20 23
3 161 160 156
3 100 97 99
3 74 73 75
3 19 17 64
3 8 13 5
3 35 33 36
3 153 150 151
3 173 172 174
3 1 22 3
3 116 119 118
3 205 209 208
3 11 15 14
3 187 186 185
3 73 76 75
3 138 136 139
3 73 71 76
3 144 180 145
3 6 7 4
3 79 76 80
3 81 209 219
3 133 144 142
3 55 52 53
3 5 20 22
3 210 208 211
3 9 216 217
3 30 27 33
3 212 81 82
3 115 198 199
3 93 95 94
3 42 58 57
3 50 51 54
3 185 157 154
3 156 155 153
3 139 136 141
3 199 197 117
3 210 211 213
3 0 1 2
3 202 223 204
3 41 42 45
3 124 126 125
3 145 179 143
3 149 148 131
3 136 127 134
3 127 128 130
3 63 19 64
3 146 147 144
3 113 108 111
3 161 156 157
3 117 126 124
3 50 48 51
3 194 195 196
3 99 90 221
3 126 129 125
3 7 8 4
3 103 100 101
3 176 177 179
3 169 173 166
3 66 68 70
3 76 78 75
3 209 205 222
3 51 57 56
3 151 154 153
3 205 206 222
3 93 92 89
3 221 90 87
3 154 157 153
3 204 201 202
3 135 142 143
3 108 116 118
3 44 45 48
3 156 158 155
3 122 123 120
3 78 81 83
3 12 14 16
3 41 38 42
3 112 111 110
3 215 82 218
3 178 173 176
3 163 165 159
3 195 193 129
3 9 214 216
3 122 127 123
3 159 158 163
3 155 180 147
3 66 15 68
3 114 111 112
3 17 66 65
3 11 9 15
3 193 192 190
3 40 38 41
3 4 5 1
3 124 122 119
3 31 29 30
3 60 61 59
3 211 215 214
3 13 18 20
3 102 97 100
3 47 44 48
3 208 212 211
3 203 201 204
3 197 126 117
3 204 223 206
3 25 22 62
3 186 161 185
3 88 89 91
3 115 117 116
3 137 136 138
3 69 71 68
3 108 104 110
3 38 36 39
3 128 193 152
3 158 156 160
3 29 26 30
3 35 38 40
3 104 97 102
3 89 92 91
3 181 175 182
3 198 197 199
3 219 87 84
3 110 104 105
3 80 82 79
3 165 169 166
3 7 10 8
3 124 119 116
3 95 98 140
3 128 149 131
3 6 9 7
3 85 86 88
3 166 178 180
3 121 120 137
3 211 212 215
3 96 140 141
3 70 71 73
3 64 17 65
3 191 154 151
3 193 128 129
3 209 222 220
3 67 70 72
3 108 118 109
3 9 213 214
3 125 122 124
3 152 148 149
3 208 209 212
3 85 83 86
3 119 120 109
3 1 5 22
3 57 58 56
3 167 165 163
3 190 188 191
3 52 50 53
3 87 86 83
3 54 51 56
3 69 218 80
3 127 130 132
3 174 175 181
3 132 142 135
3 200 112 201
3 40 41 43
3 104 106 98
3 67 66 70
3 93 97 95
3 207 205 208
3 209 81 212
3 115 199 117
3 114 112 200
3 49 48 50
3 108 115 116
3 150 147 146
3 29 28 26
3 106 121 107
3 45 42 57
3 144 145 142
3 10 11 12
3 81 219 84
3 217 15 9
3 188 154 191
3 168 169 165
3 134 132 135
3 107 138 139
3 43 44 46
3 140 139 141
3 92 93 94
3 98 107 140
3 222 101 220
3 118 119 109
3 222 206 103
3 30 26 27
3 196 195 197
3 39 36 60
3 165 166 159
3 10 12 8
3 195 129 126
3 115 108 113
3 10 9 11
3 121 137 138
3 193 191 152
3 176 173 174
3 130 133 132
3 104 108 106
3 106 109 121
3 15 217 69
3 16 17 19
3 157 156 153
3 158 160 162
3 175 183 182
3 172 170 175
3 31 30 32
3 27 24 25
3 152 191 151
3 202 105 223
3 103 101 222
3 74 75 77
3 194 193 195
3 220 101 221
3 35 34 32
3 51 45 57
3 133 142 132
3 129 128 125
3 34 31 32
3 95 140 96
3 15 69 68
3 103 223 102
3 58 38 39
3 36 33 37
3 8 12 13
3 219 220 221
3 105 104 102
3 69 217 218
3 99 93 90
3 14 15 66
3 37 27 25
3 148 146 131
3 97 98 95
3 123 136 137
3 0 4 1
3 197 195 126
3 110 105 202
3 113 111 114
3 196 197 198
3 171 170 172
3 13 16 18
3 53 50 54
3 151 150 148
3 70 68 71
3 94 95 96
3 171 172 169
3 203 200 201
3 18 19 21
3 221 101 99
3 37 25 62
3 52 49 50
3 209 220 219
3 174 172 175
3 188 187 185
3 18 21 20
3 65 66 67
3 177 174 181
3 6 4 0
3 150 155 147
3 49 47 48
3 128 127 125
3 215 218 216
3 72 70 73
3 133 146 144
3 167 168 165
3 43 41 44
3 90 89 86
3 1 3 2
3 175 170 183
3 28 3 26
3 203 205 207
3 109 120 121
3 80 71 69

POINT_DATA 224
COLOR_SCALARS GocadColor 4
0.819608 0.698116 0.549615 1
0.819608 0.698116 0.549615 1
0.819608 0.698116 0.549615 1
0.819608 0.698116 0.549615 1
0.819608 0.698116 0.549615 1
0.819608 0.698116 0.549615 1
0.819608 0.698116 0.549615 1
0.819608 0.698116 0.549615 1
0.819608 0.698116 0.549615 1
0.819608 0.698116 0.549615 1
0.819608 0.698116 0.549615 1
0.819608 0.698116 0.549615 1
0.819608 0.698116 0.549615 1
0.819608 0.698116 0.549615 1
0.819608 0.698116 0.549615 1
0.819608 0.698116 0.549615 1
0.819608 0.698116 0.549615 1
0.819608 0.698116 0.549615 1
0.819608 0.698116 0.549615 1
0.819608 0.698116 0.549615 1
0.819608 0.698116 0.549615 1
0.819608 0.698116 0.549615 1
0.819608 0.698116 0.549615 1
0.819608 0.698116 0.549615 1
0.819608 0.698116 0.549615 1
0.819608 0.698116 0.549615 1
0.819608 0.698116 0.549615 1
0.819608 0.698116 0.549615 1
0.819608 0.698116 0.549615 1
0.819608 0.698116 0.549615 1
0.819608 0.698116 0.549615 1
0.819608 0.698116 0.549615 1
0.819608 0.698116 0.549615 1
0.819608 0.698116 0.549615 1
0.819608 0.698116 0.549615 1
0.819608 0.698116 0.549615 1
0.819608 0.698116 0.549615 1
0.819608 0.698116 0.549615 1
0.819608 0.698116 0.549615 1
0.819608 0.698116 0.549615 1
0.819608 0.698116 0.549615 1
0.819608 0.698116 0.549615 1
0.819608 0.698116 0.549615 1
0.819608 0.698116 0.549615 1
0.819608 0.698116 0.549615 1
0.819608 0.698116 0.549615 1
0.819608 0.698116 0.549615 1
0.819608 0.698116 0.549615 1
0.819608 0.698116 0.549615 1
0.819608 0.698116 0.549615 1
0.819608 0.698116 0.549615 1
0.819608 0.698116 0.549615 1
0.819608 0.698116 0.549615 1
0.819608 0.698116 0.549615 1
0.819608 0.698116 0.549615 1
0.819608 0.698116 0.549615 1
0.819608 0.698116 0.549615 1
0.819608 0.698116 0.549615 1
0.819608 0.698116 0.549615 1
0.819608 0.698116 0.549615 1
0.819608 0.698116 0.549615 1
0.819608 0.698116 0.549615 1
0.819608 0.698116 0.549615 1
0.819608 0.698116 0.549615 1
0.819608 0.698116 0.549615 1
0.819608 0.698116 0.549615 1
0.819608 0.698116 0.549615 1
0.819608 0.698116 0.549615 1
0.819608 0.698116 0.549615 1
0.819608 0.698116 0.549615 1
0.819608 0.698116 0.549615 1
0.819608 0.698116 0.549615 1
0.819608 0.698116 0.549615 1
0.819608 0.698116 0.549615 1
0.819608 0.698116 0.549615 1
0.819608 0.698116 0.549615 1
0.819608 0.698116 0.549615 1
0.819608 0.698116 0.549615 1
0.819608 0.698116 0.549615 1
0.819608 0.698116 0.549615 1
0.819608 0.698116 0.549615 1
0.819608 0.698116 0.549615 1
0.819608 0.698116 0.549615 1
0.819608 0.698116 0.549615 1
0.819608 0.698116 0.549615 1
0.819608 0.698116 0.549615 1
0.819608 0.698116 0.549615 1
0.819608 0.698116 0.549615 1
0.819608 0.698116 0.549615 1
0.819608 0.698116 0.549615 1
0.819608 0.698116 0.549615 1
0.819608 0.698116 0.549615 1
0.819608 0.698116 0.549615 1
0.819608 0.698116 0.549615 1
0.819608 0.698116 0.549615 1
0.819608 0.698116 0.549615 1
0.819608 0.698116 0.549615 1
0.819608 0.698116 0.549615 1
0.819608 0.698116 0.549615 1
0.819608 0.698116 0.549615 1
0.819608 0.698116 0.549615 1
0.819608 0.698116 0.549615 1
0.819608 0.698116 0.549615 1
0.819608 0.698116 0.549615 1
0.819608 0.698116 0.549615 1
0.819608 0.698116 0.549615 1
0.819608 0.698116 0.549615 1
0.819608 0.698116 0.549615 1
0.819608 0.698116 0.549615 1
0.819608 0.698116 0.549615 1
0.819608 0.698116 0.549615 1
0.819608 0.698116 0.549615 1
0.819608 0.698116 0.549615 1
0.819608 0.698116 0.549615 1
0.819608 0.698116 0.549615 1
0.819608 0.698116 0.549615 1
0.819608 0.698116 0.549615 1
0.819608 0.698116 0.549615 1
0.819608 0.698116 0.549615 1
0.819608 0.698116 0.549615 1
0.819608 0.698116 0.549615 1
0.819608 0.698116 0.549615 1
0.819608 0.698116 0.549615 1
0.819608 0.698116 0.549615 1
0.819608 0.698116 0.549615 1
0.819608 0.698116 0.549615 1
0.819608 0.698116 0.549615 1
0.819608 0.698116 0.549615 1
0.819608 0.698116 0.549615 1
0.819608 0.698116 0.549615 1
0.819608 0.698116 0.549615 1
0.819608 0.698116 0.549615 1
0.819608 0.698116 0.549615 1
0.819608 0.698116 0.549615 1
0.819608 0.698116 0.549615 1
0.819608 0.698116 0.549615 1
0.819608 0.698116 0.549615 1
0.819608 0.698116 0.549615 1
0.819608 0.698116 0.549615 1
0.819608 0.698116 0.549615 1
0.819608 0.698116 0.549615 1
0.819608 0.698116 0.549615 1
0.819608 0.698116 0.549615 1
0.819608 0.698116 0.549615 1
0.819608 0.698116 0.549615 1
0.819608 0.698116 0.549615 1
0.819608 0.698116 0.549615 1
0.819608 0.698116 0.549615 1
0.819608 0.698116 0.549615 1
0.819608 0.698116 0.549615 1
0.819608 0.698116 0.549615 1
0.819608 0.698116 0.549615 1
0.819608 0.698116 0.549615 1
0.819608 0.698116 0.549615 1
0.819608 0.698116 0.549615 1
0.819608 0.698116 0.549615 1
0.819608 0.698116 0.549615 1
0.819608 0.698116 0.549615 1
0.819608 0.698116 0.549615 1
0.819608 0.698116 0.549615 1
0.819608 0.698116 0.549615 1
0.819608 0.698116 0.549615 1
0.819608 0.698116 0.549615 1
0.819608 0.698116 0.549615 1
0.819608 0.698116 0.549615 1
0.819608 0.698116 0.549615 1
0.819608 0.698116 0.549615 1
0.819608 0.698116 0.549615 1
0.819608 0.698116 0.549615 1
0.819608 0.698116 0.549615 1
0.819608 0.698116 0.549615 1
0.819608 0.698116 0.549615 1
0.819608 0.698116 0.549615 1
0.819608 0.698116 0.549615 1
0.819608 0.698116 0.549615 1
0.819608 0.698116 0.549615 1
0.819608 0.698116 0.549615 1
0.819608 0.698116 0.549615 1
0.819608 0.698116 0.549615 1
0.819608 0.698116 0.549615 1
0.819608 0.698116 0.549615 1
0.819608 0.698116 0.549615 1
0.819608 0.698116 0.549615 1
0.819608 0.698116 0.549615 1
0.819608 0.698116 0.549615 1
0.819608 0.698116 0.549615 1
0.819608 0.698116 0.549615 1
0.819608 0.698116 0.549615 1
0.819608 0.698116 0.549615 1
0.819608 0.698116 0.549615 1
0.819608 0.698116 0.549615 1
0.819608 0.698116 0.549615 1
0.819608 0.698116 0.549615 1
0.819608 0.698116 0.549615 1
0.819608 0.698116 0.549615 1
0.819608 0.698116 0.549615 1
0.819608 0.698116 0.549615 1
0.819608 0.698116 0.549615 1
0.819608 0.698116 0.549615 1
0.819608 0.698116 0.549615 1
0.819608 0.698116 0.549615 1
0.819608 0.698116 0.549615 1
0.819608 0.698116 0.549615 1
0.819608 0.698116 0.549615 1
0.819608 0.698116 0.549615 1
0.819608 0.698116 0.549615 1
0.819608 0.698116 0.549615 1
0.819608 0.698116 0.549615 1
0.819608 0.698116 0.549615 1
0.819608 0.698116 0.549615 1
0.819608 0.698116 0.549615 1
0.819608 0.698116 0.549615 1
0.819608 0.698116 0.549615 1
0.819608 0.698116 0.549615 1
0.819608 0.698116 0.549615 1
0.819608 0.698116 0.549615 1
0.819608 0.698116 0.549615 1
0.819608 0.698116 0.549615 1
0.819608 0.698116 0.549615 1
0.819608 0.698116 0.549615 1
0.819608 0.698116 0.549615 1
0.819608 0.698116 0.549615 1
0.819608 0.698116 0.549615 1
0.819608 0.698116 0.549615 1

