# vtk DataFile Version 3.0
Gocad TSurf to VTK
ASCII
DATASET POLYDATA
POINTS 176 float
21604050.000 4583350.000 -307.500
21604500.000 4583170.000 -600.000
21603600.000 4583730.000 103.750
21603600.000 4584330.000 460.000
21603600.000 4583530.000 -15.000
21604700.000 4582892.500 -773.750
21605300.000 4582270.000 -1365.000
21605300.000 4582060.000 -1295.000
21605300.000 4582112.500 -1312.500
21604850.000 4582360.000 -1012.500
21603550.000 4583395.000 -90.000
21605250.000 4582032.500 -1320.000
21605200.000 4582005.000 -1345.000
21605150.000 4581977.500 -1370.000
21603950.000 4582960.000 -447.500
21605100.000 4581950.000 -1395.000
21603500.000 4583260.000 -165.000
21604750.000 4582155.000 -1186.250
21603600.000 4583015.000 -362.500
21605100.000 4581917.500 -1430.000
21605100.000 4581885.000 -1465.000
21604050.000 4582565.000 -768.750
21605100.000 4581852.500 -1500.000
21605100.000 4581820.000 -1535.000
21603700.000 4582770.000 -560.000
21604775.000 4581965.000 -1381.250
21602875.000 4583452.500 126.250
21602700.000 4583375.000 130.000
21602725.000 4583145.000 -65.000
21602625.000 4583432.500 178.750
21602200.000 4583850.000 530.000
21602500.000 4583305.000 110.000
21602275.000 4583477.500 256.250
21602400.000 4583270.000 100.000
21603550.000 4582460.000 -822.500
21602100.000 4583500.000 295.000
21602125.000 4583587.500 353.750
21602250.000 4583242.500 85.000
21602025.000 4583417.500 231.250
21602175.000 4583067.500 -46.250
21602100.000 4583215.000 70.000
21602600.000 4582955.000 -215.000
21602200.000 4582855.000 -303.750
21602800.000 4582640.000 -530.000
21604250.000 4581985.000 -1380.000
21604700.000 4581570.000 -1840.000
21604125.000 4582255.000 -1073.750
21604900.000 4581680.000 -1745.000
21603725.000 4582677.500 -650.000
21604950.000 4581715.000 -1692.500
21605000.000 4581750.000 -1640.000
21605050.000 4581785.000 -1587.500
21604850.000 4581652.500 -1768.750
21604800.000 4581625.000 -1792.500
21604750.000 4581597.500 -1816.250
21603400.000 4582055.000 -1115.000
21604525.000 4581545.000 -1805.000
21604000.000 4581470.000 -1700.000
21604650.000 4581485.000 -1861.250
21604600.000 4581400.000 -1882.500
21604550.000 4581315.000 -1903.750
21604500.000 4581230.000 -1925.000
21604025.000 4581322.500 -1700.000
21603800.000 4581452.500 -1550.000
21604400.000 4581142.500 -1868.750
21604050.000 4581175.000 -1700.000
21604300.000 4581055.000 -1812.500
21604200.000 4580967.500 -1756.250
21604100.000 4580880.000 -1700.000
21603200.000 4581400.000 -1100.000
21603600.000 4581435.000 -1400.000
21603500.000 4580965.000 -1302.500
21602500.000 4581230.000 -740.000
21604025.000 4580792.500 -1651.250
21603950.000 4580705.000 -1602.500
21603875.000 4580617.500 -1553.750
21603800.000 4580530.000 -1505.000
21603475.000 4580615.000 -1335.000
21602825.000 4580785.000 -995.000
21603775.000 4580485.000 -1505.000
21603750.000 4580440.000 -1505.000
21603725.000 4580395.000 -1505.000
21603700.000 4580350.000 -1505.000
21602500.000 4580870.000 -825.000
21601800.000 4581735.000 -367.500
21602400.000 4581810.000 -615.000
21600925.000 4581677.500 116.250
21600400.000 4582320.000 305.000
21600600.000 4581720.000 295.000
21600450.000 4582170.000 302.500
21600675.000 4582312.500 176.250
21601225.000 4582592.500 -63.750
21600375.000 4582482.500 312.500
21600350.000 4582645.000 320.000
21600325.000 4582807.500 327.500
21600300.000 4582970.000 335.000
21600325.000 4583102.500 345.000
21600350.000 4583235.000 355.000
21600675.000 4583197.500 228.750
21601900.000 4582232.500 -367.500
21600375.000 4583367.500 365.000
21600400.000 4583500.000 375.000
21603600.000 4581555.000 -1428.750
21601000.000 4583285.000 148.750
21600750.000 4583417.500 291.250
21601100.000 4583335.000 207.500
21600625.000 4583482.500 347.500
21600550.000 4583640.000 397.500
21600475.000 4583570.000 386.250
21600625.000 4583710.000 408.750
21600700.000 4583780.000 420.000
21601400.000 4583650.000 417.500
21601800.000 4583170.000 40.000
21600900.000 4583802.500 457.500
21601100.000 4583825.000 495.000
21601300.000 4583847.500 532.500
21601489.641 4583868.836 568.057
21601499.227 4583868.305 568.825
21601900.000 4583482.500 287.500
21601501.430 4583868.617 568.993
21601502.086 4583868.711 569.043
21601508.383 4583869.758 569.521
21601675.000 4583865.000 560.000
21601850.000 4583860.000 550.000
21602025.000 4583855.000 540.000
21601950.000 4583335.000 167.500
21602800.000 4581725.000 -886.250
21602650.000 4583710.000 257.500
21603075.000 4583707.500 157.500
21602425.000 4583970.000 413.750
21602500.000 4584010.000 375.000
21602625.000 4584030.000 375.000
21603025.000 4583962.500 302.500
21602875.000 4584070.000 375.000
21603000.000 4584090.000 375.000
21603475.000 4583542.500 10.000
21603450.000 4584270.000 438.750
21605300.000 4582165.000 -1330.000
21605300.000 4582217.500 -1347.500
21605150.000 4582690.000 -1001.250
21605325.000 4582280.000 -1337.500
21604950.000 4582915.000 -810.000
21605100.000 4582830.000 -880.000
21604425.000 4583510.000 -356.250
21604275.000 4584190.000 131.250
21603750.000 4584380.000 438.750
21604200.000 4584530.000 375.000
21604050.000 4584480.000 396.250
21604500.000 4584212.500 145.000
21605325.000 4583152.500 -628.750
21604425.000 4584545.000 375.000
21604650.000 4584560.000 375.000
21604875.000 4584575.000 375.000
21605100.000 4583577.500 -315.000
21604903.234 4584576.883 375.000
21605100.000 4584568.188 360.135
21605400.000 4583260.000 -545.000
21605104.969 4584567.969 359.759
21605475.000 4582462.500 -1056.250
21605600.000 4582340.000 -1115.000
21605550.000 4582332.500 -1150.000
21605500.000 4582325.000 -1185.000
21605450.000 4582317.500 -1220.000
21605400.000 4582310.000 -1255.000
21605375.000 4582300.000 -1282.500
21605350.000 4582290.000 -1310.000
21601500.000 4583870.000 570.000
21601489.641 4583868.836 568.057
21601499.227 4583868.305 568.825
21601501.430 4583868.617 568.993
21601502.086 4583868.711 569.043
21601508.383 4583869.758 569.521
21605100.000 4584590.000 375.000
21604903.234 4584576.883 375.000
21605100.000 4584568.188 360.135
21605104.969 4584567.969 359.759

POLYGONS 248 992
3 4 132 135
3 56 59 58
3 7 8 5
3 81 80 77
3 13 12 9
3 124 123 36
3 27 29 31
3 118 125 38
3 17 15 16
3 5 138 6
3 42 39 112
3 30 29 26
3 45 43 55
3 24 21 18
3 68 67 65
3 131 133 130
3 127 26 128
3 99 85 126
3 76 77 79
3 0 4 5
3 95 94 91
3 72 71 69
3 46 44 47
3 0 5 1
3 140 165 139
3 67 66 65
3 116 115 111
3 119 117 118
3 17 16 18
3 155 156 157
3 149 153 148
3 149 142 158
3 118 112 125
3 46 47 49
3 21 23 22
3 106 101 104
3 46 49 25
3 10 4 135
3 77 80 79
3 70 69 65
3 151 150 148
3 26 27 24
3 2 134 4
3 84 85 99
3 33 39 41
3 5 6 1
3 85 72 69
3 101 102 57
3 107 106 104
3 98 97 91
3 159 158 160
3 10 14 9
3 154 152 153
3 122 36 123
3 14 13 9
3 34 33 41
3 125 112 40
3 159 156 158
3 7 4 9
3 86 83 84
3 26 16 128
3 52 44 53
3 98 99 102
3 131 130 128
3 83 82 78
3 84 99 91
3 102 70 63
3 146 147 144
3 0 1 2
3 130 129 127
3 87 89 86
3 156 153 149
3 9 4 10
3 3 1 143
3 18 16 26
3 108 101 106
3 133 131 132
3 43 45 44
3 1 3 2
3 24 48 25
3 68 69 71
3 40 38 125
3 35 33 32
3 2 3 136
3 23 25 51
3 163 162 158
3 132 128 135
3 142 144 141
3 45 56 58
3 52 47 44
3 127 30 26
3 61 57 62
3 32 31 29
3 39 40 112
3 22 20 21
3 155 154 153
3 29 30 36
3 73 71 74
3 105 112 111
3 20 17 21
3 110 105 111
3 101 103 104
3 131 128 132
3 101 57 103
3 141 143 1
3 29 27 26
3 16 135 128
3 14 15 13
3 61 62 64
3 103 105 104
3 145 3 143
3 8 137 5
3 142 146 144
3 136 134 2
3 122 35 36
3 63 65 62
3 112 118 111
3 152 151 148
3 36 35 32
3 109 107 104
3 96 95 91
3 32 33 31
3 25 50 51
3 142 141 139
3 87 86 84
3 163 139 164
3 150 146 148
3 37 35 38
3 78 82 81
3 93 92 90
3 30 124 36
3 35 122 121
3 88 86 89
3 64 65 66
3 16 10 135
3 94 90 91
3 109 104 105
3 17 20 19
3 72 85 84
3 146 142 148
3 85 69 126
3 57 102 63
3 90 87 84
3 2 4 0
3 163 142 139
3 75 74 71
3 110 109 105
3 28 27 31
3 90 84 91
3 55 57 56
3 28 33 34
3 6 140 139
3 21 24 23
3 88 83 86
3 43 42 55
3 97 96 91
3 141 144 143
3 156 149 158
3 16 14 10
3 24 18 26
3 103 42 112
3 27 28 24
3 107 108 106
3 130 127 128
3 33 35 37
3 142 163 158
3 73 68 71
3 48 46 25
3 155 153 156
3 54 53 44
3 72 76 71
3 28 48 24
3 114 111 115
3 158 161 160
3 114 113 111
3 3 145 147
3 99 126 102
3 17 19 15
3 83 72 84
3 144 145 143
3 46 34 44
3 78 77 72
3 49 50 25
3 153 152 148
3 69 70 102
3 56 45 55
3 117 116 111
3 83 78 72
3 37 40 39
3 57 63 62
3 103 57 55
3 35 118 38
3 100 97 98
3 28 34 48
3 147 145 144
3 101 100 98
3 78 81 77
3 105 103 112
3 55 42 103
3 119 118 35
3 23 24 25
3 44 34 43
3 39 42 41
3 141 1 139
3 34 41 43
3 99 98 91
3 60 59 56
3 1 6 139
3 32 29 36
3 34 46 48
3 165 164 139
3 120 119 35
3 94 93 90
3 76 75 71
3 9 12 11
3 132 134 133
3 126 69 102
3 148 142 149
3 101 98 102
3 92 87 90
3 31 33 28
3 113 110 111
3 76 72 77
3 137 138 5
3 4 7 5
3 70 65 63
3 42 43 41
3 16 15 14
3 120 35 121
3 57 61 56
3 40 37 38
3 69 68 65
3 21 17 18
3 7 9 11
3 45 54 44
3 4 134 132
3 64 62 65
3 117 111 118
3 30 127 129
3 162 161 158
3 61 60 56
3 33 37 39
3 166 167 168
3 171 166 170
3 169 166 168
3 170 166 169
3 172 173 174
3 175 172 174

POINT_DATA 176
COLOR_SCALARS GocadColor 4
0.819608 0.698116 0.549615 1
0.819608 0.698116 0.549615 1
0.819608 0.698116 0.549615 1
0.819608 0.698116 0.549615 1
0.819608 0.698116 0.549615 1
0.819608 0.698116 0.549615 1
0.819608 0.698116 0.549615 1
0.819608 0.698116 0.549615 1
0.819608 0.698116 0.549615 1
0.819608 0.698116 0.549615 1
0.819608 0.698116 0.549615 1
0.819608 0.698116 0.549615 1
0.819608 0.698116 0.549615 1
0.819608 0.698116 0.549615 1
0.819608 0.698116 0.549615 1
0.819608 0.698116 0.549615 1
0.819608 0.698116 0.549615 1
0.819608 0.698116 0.549615 1
0.819608 0.698116 0.549615 1
0.819608 0.698116 0.549615 1
0.819608 0.698116 0.549615 1
0.819608 0.698116 0.549615 1
0.819608 0.698116 0.549615 1
0.819608 0.698116 0.549615 1
0.819608 0.698116 0.549615 1
0.819608 0.698116 0.549615 1
0.819608 0.698116 0.549615 1
0.819608 0.698116 0.549615 1
0.819608 0.698116 0.549615 1
0.819608 0.698116 0.549615 1
0.819608 0.698116 0.549615 1
0.819608 0.698116 0.549615 1
0.819608 0.698116 0.549615 1
0.819608 0.698116 0.549615 1
0.819608 0.698116 0.549615 1
0.819608 0.698116 0.549615 1
0.819608 0.698116 0.549615 1
0.819608 0.698116 0.549615 1
0.819608 0.698116 0.549615 1
0.819608 0.698116 0.549615 1
0.819608 0.698116 0.549615 1
0.819608 0.698116 0.549615 1
0.819608 0.698116 0.549615 1
0.819608 0.698116 0.549615 1
0.819608 0.698116 0.549615 1
0.819608 0.698116 0.549615 1
0.819608 0.698116 0.549615 1
0.819608 0.698116 0.549615 1
0.819608 0.698116 0.549615 1
0.819608 0.698116 0.549615 1
0.819608 0.698116 0.549615 1
0.819608 0.698116 0.549615 1
0.819608 0.698116 0.549615 1
0.819608 0.698116 0.549615 1
0.819608 0.698116 0.549615 1
0.819608 0.698116 0.549615 1
0.819608 0.698116 0.549615 1
0.819608 0.698116 0.549615 1
0.819608 0.698116 0.549615 1
0.819608 0.698116 0.549615 1
0.819608 0.698116 0.549615 1
0.819608 0.698116 0.549615 1
0.819608 0.698116 0.549615 1
0.819608 0.698116 0.549615 1
0.819608 0.698116 0.549615 1
0.819608 0.698116 0.549615 1
0.819608 0.698116 0.549615 1
0.819608 0.698116 0.549615 1
0.819608 0.698116 0.549615 1
0.819608 0.698116 0.549615 1
0.819608 0.698116 0.549615 1
0.819608 0.698116 0.549615 1
0.819608 0.698116 0.549615 1
0.819608 0.698116 0.549615 1
0.819608 0.698116 0.549615 1
0.819608 0.698116 0.549615 1
0.819608 0.698116 0.549615 1
0.819608 0.698116 0.549615 1
0.819608 0.698116 0.549615 1
0.819608 0.698116 0.549615 1
0.819608 0.698116 0.549615 1
0.819608 0.698116 0.549615 1
0.819608 0.698116 0.549615 1
0.819608 0.698116 0.549615 1
0.819608 0.698116 0.549615 1
0.819608 0.698116 0.549615 1
0.819608 0.698116 0.549615 1
0.819608 0.698116 0.549615 1
0.819608 0.698116 0.549615 1
0.819608 0.698116 0.549615 1
0.819608 0.698116 0.549615 1
0.819608 0.698116 0.549615 1
0.819608 0.698116 0.549615 1
0.819608 0.698116 0.549615 1
0.819608 0.698116 0.549615 1
0.819608 0.698116 0.549615 1
0.819608 0.698116 0.549615 1
0.819608 0.698116 0.549615 1
0.819608 0.698116 0.549615 1
0.819608 0.698116 0.549615 1
0.819608 0.698116 0.549615 1
0.819608 0.698116 0.549615 1
0.819608 0.698116 0.549615 1
0.819608 0.698116 0.549615 1
0.819608 0.698116 0.549615 1
0.819608 0.698116 0.549615 1
0.819608 0.698116 0.549615 1
0.819608 0.698116 0.549615 1
0.819608 0.698116 0.549615 1
0.819608 0.698116 0.549615 1
0.819608 0.698116 0.549615 1
0.819608 0.698116 0.549615 1
0.819608 0.698116 0.549615 1
0.819608 0.698116 0.549615 1
0.819608 0.698116 0.549615 1
0.819608 0.698116 0.549615 1
0.819608 0.698116 0.549615 1
0.819608 0.698116 0.549615 1
0.819608 0.698116 0.549615 1
0.819608 0.698116 0.549615 1
0.819608 0.698116 0.549615 1
0.819608 0.698116 0.549615 1
0.819608 0.698116 0.549615 1
0.819608 0.698116 0.549615 1
0.819608 0.698116 0.549615 1
0.819608 0.698116 0.549615 1
0.819608 0.698116 0.549615 1
0.819608 0.698116 0.549615 1
0.819608 0.698116 0.549615 1
0.819608 0.698116 0.549615 1
0.819608 0.698116 0.549615 1
0.819608 0.698116 0.549615 1
0.819608 0.698116 0.549615 1
0.819608 0.698116 0.549615 1
0.819608 0.698116 0.549615 1
0.819608 0.698116 0.549615 1
0.819608 0.698116 0.549615 1
0.819608 0.698116 0.549615 1
0.819608 0.698116 0.549615 1
0.819608 0.698116 0.549615 1
0.819608 0.698116 0.549615 1
0.819608 0.698116 0.549615 1
0.819608 0.698116 0.549615 1
0.819608 0.698116 0.549615 1
0.819608 0.698116 0.549615 1
0.819608 0.698116 0.549615 1
0.819608 0.698116 0.549615 1
0.819608 0.698116 0.549615 1
0.819608 0.698116 0.549615 1
0.819608 0.698116 0.549615 1
0.819608 0.698116 0.549615 1
0.819608 0.698116 0.549615 1
0.819608 0.698116 0.549615 1
0.819608 0.698116 0.549615 1
0.819608 0.698116 0.549615 1
0.819608 0.698116 0.549615 1
0.819608 0.698116 0.549615 1
0.819608 0.698116 0.549615 1
0.819608 0.698116 0.549615 1
0.819608 0.698116 0.549615 1
0.819608 0.698116 0.549615 1
0.819608 0.698116 0.549615 1
0.819608 0.698116 0.549615 1
0.819608 0.698116 0.549615 1
0.819608 0.698116 0.549615 1
0.819608 0.698116 0.549615 1
0.819608 0.698116 0.549615 1
0.819608 0.698116 0.549615 1
0.819608 0.698116 0.549615 1
0.819608 0.698116 0.549615 1
0.819608 0.698116 0.549615 1
0.819608 0.698116 0.549615 1
0.819608 0.698116 0.549615 1
0.819608 0.698116 0.549615 1
0.819608 0.698116 0.549615 1
0.819608 0.698116 0.549615 1

