# vtk DataFile Version 3.0
Gocad TSurf to VTK
ASCII
DATASET POLYDATA
POINTS 645 float
21571000.000 4575500.000 30.000
21570925.000 4575490.000 23.750
21570950.000 4575395.000 16.250
21570850.000 4575480.000 17.500
21571100.000 4575100.000 -25.000
21570850.000 4575775.000 23.750
21570800.000 4575670.000 17.500
21570900.000 4575880.000 30.000
21570800.000 4575907.500 10.000
21570700.000 4575935.000 -10.000
21570650.000 4576500.000 -42.500
21570600.000 4576330.000 -45.000
21570700.000 4576670.000 -40.000
21570550.000 4576780.000 -60.000
21570500.000 4577380.000 -95.000
21570400.000 4577312.500 -101.250
21570400.000 4576890.000 -80.000
21570250.000 4577717.500 -101.250
21570200.000 4577515.000 -107.500
21570300.000 4577920.000 -95.000
21570150.000 4577980.000 -101.250
21570000.000 4578040.000 -107.500
21570300.000 4577990.000 -50.000
21570150.000 4578032.500 -67.500
21570100.000 4578165.000 -57.500
21570000.000 4578075.000 -85.000
21569900.000 4578340.000 -65.000
21569850.000 4578117.500 -102.500
21569850.000 4578100.000 -113.750
21569700.000 4578515.000 -72.500
21569700.000 4578160.000 -120.000
21569500.000 4578690.000 -80.000
21569425.000 4578580.000 -76.250
21569325.000 4578807.500 -80.000
21569575.000 4578182.500 -106.250
21569350.000 4578470.000 -72.500
21569675.000 4577915.000 -96.250
21569450.000 4578205.000 -92.500
21570100.000 4577110.000 -120.000
21569975.000 4577127.500 -96.250
21570150.000 4577312.500 -113.750
21570200.000 4577177.500 -113.750
21570300.000 4577245.000 -107.500
21570250.000 4577000.000 -100.000
21570550.000 4576160.000 -47.500
21570500.000 4575990.000 -50.000
21570600.000 4575962.500 -30.000
21570375.000 4576110.000 -40.000
21570075.000 4576950.000 -92.500
21570450.000 4575915.000 -47.500
21570400.000 4575840.000 -45.000
21570600.000 4575517.500 -6.250
21570500.000 4575575.000 -17.500
21570700.000 4575460.000 5.000
21570750.000 4575565.000 11.250
21570650.000 4575410.000 -16.250
21570600.000 4575360.000 -37.500
21570725.000 4575125.000 -38.750
21570650.000 4575170.000 -52.500
21570800.000 4575080.000 -25.000
21570850.000 4575185.000 -11.250
21570750.000 4575045.000 -62.500
21570700.000 4575010.000 -100.000
21570825.000 4574895.000 -73.750
21570750.000 4574910.000 -107.500
21570900.000 4574880.000 -40.000
21570875.000 4575085.000 -25.000
21570875.000 4574815.000 -81.250
21570850.000 4574750.000 -122.500
21570825.000 4574685.000 -163.750
21570675.000 4574925.000 -141.250
21570800.000 4574620.000 -205.000
21570600.000 4574940.000 -175.000
21570550.000 4574610.000 -242.500
21570650.000 4574975.000 -137.500
21570575.000 4575215.000 -66.250
21570500.000 4575260.000 -80.000
21570550.000 4575310.000 -58.750
21570325.000 4575090.000 -148.750
21570275.000 4575217.500 -135.000
21570400.000 4574850.000 -220.000
21570150.000 4574920.000 -217.500
21570300.000 4574600.000 -280.000
21570200.000 4574760.000 -265.000
21570600.000 4574435.000 -232.500
21570400.000 4574250.000 -260.000
21570600.000 4574435.000 -232.500
21570400.000 4574250.000 -260.000
21570200.000 4574065.000 -287.500
21570050.000 4574590.000 -317.500
21570200.000 4574065.000 -287.500
21570000.000 4573880.000 -315.000
21569800.000 4574580.000 -355.000
21569725.000 4574320.000 -376.250
21570000.000 4574670.000 -310.000
21569975.000 4574750.000 -286.250
21569825.000 4575132.500 -245.000
21569600.000 4575090.000 -300.000
21570050.000 4575175.000 -190.000
21569775.000 4575240.000 -235.000
21569950.000 4575390.000 -170.000
21570125.000 4575540.000 -105.000
21569700.000 4575510.000 -122.500
21569500.000 4575450.000 -150.000
21569900.000 4575570.000 -95.000
21569800.000 4575865.000 -32.500
21570100.000 4575630.000 -67.500
21570050.000 4575777.500 -36.250
21570300.000 4575690.000 -40.000
21570400.000 4575632.500 -28.750
21570350.000 4575765.000 -42.500
21570125.000 4576350.000 -20.000
21570250.000 4576230.000 -30.000
21570000.000 4576470.000 -10.000
21570025.000 4576630.000 -37.500
21569825.000 4576362.500 -13.750
21569525.000 4576895.000 -25.000
21569650.000 4576255.000 -17.500
21569450.000 4576610.000 -25.000
21569550.000 4575952.500 -28.750
21569475.000 4576147.500 -21.250
21569300.000 4576040.000 -25.000
21569100.000 4575877.500 -103.750
21569375.000 4576325.000 -25.000
21568900.000 4576990.000 -40.000
21569075.000 4577037.500 -36.250
21569250.000 4577085.000 -32.500
21569150.000 4577450.000 -65.000
21569425.000 4577132.500 -28.750
21569375.000 4577315.000 -45.000
21569600.000 4577180.000 -25.000
21569725.000 4577162.500 -48.750
21570050.000 4576790.000 -65.000
21569625.000 4577425.000 -48.750
21569850.000 4577145.000 -72.500
21569200.000 4578250.000 -65.000
21569325.000 4578227.500 -78.750
21569075.000 4578117.500 -75.000
21569000.000 4578312.500 -88.750
21568950.000 4577985.000 -85.000
21568925.000 4577585.000 -85.000
21568825.000 4577852.500 -95.000
21568700.000 4577720.000 -105.000
21568475.000 4577455.000 -98.750
21568600.000 4578437.500 -136.250
21568400.000 4578500.000 -160.000
21568800.000 4578375.000 -112.500
21568600.000 4578830.000 -120.000
21568700.000 4578995.000 -100.000
21568500.000 4578665.000 -140.000
21568450.000 4579395.000 -127.500
21568275.000 4579512.500 -151.250
21568100.000 4579630.000 -175.000
21568350.000 4579545.000 -107.500
21568475.000 4579502.500 -73.750
21568225.000 4579587.500 -141.250
21568150.000 4580010.000 -87.500
21567925.000 4580285.000 -111.250
21567700.000 4580560.000 -135.000
21568150.000 4580140.000 -67.500
21567925.000 4580480.000 -81.250
21568375.000 4579800.000 -53.750
21568375.000 4579735.000 -63.750
21568150.000 4580135.000 -67.500
21567925.000 4580472.500 -81.250
21568375.000 4579797.500 -53.750
21568600.000 4579460.000 -40.000
21568625.000 4579277.500 -103.750
21568800.000 4579160.000 -80.000
21568825.000 4579267.500 -50.000
21568975.000 4579042.500 -80.000
21569275.000 4578360.000 -68.750
21569050.000 4579075.000 -60.000
21569150.000 4578925.000 -80.000
21569275.000 4578882.500 -70.000
21569650.000 4577670.000 -72.500
21567700.000 4580810.000 -95.000
21567700.000 4580820.000 -95.000
21567325.000 4580565.000 -91.250
21567325.000 4580370.000 -121.250
21566950.000 4580310.000 -87.500
21567400.000 4580195.000 -125.000
21566950.000 4580180.000 -107.500
21567700.000 4579497.500 -155.000
21567100.000 4579830.000 -115.000
21567775.000 4579357.500 -133.750
21567300.000 4579365.000 -135.000
21568000.000 4578510.000 -122.500
21567450.000 4579085.000 -92.500
21568075.000 4578370.000 -118.750
21567750.000 4578240.000 -77.500
21568150.000 4578250.000 -136.250
21568375.000 4577665.000 -95.000
21567900.000 4578000.000 -112.500
21568050.000 4577610.000 -85.000
21568250.000 4577190.000 -92.500
21567725.000 4577555.000 -75.000
21568625.000 4576907.500 -50.000
21568350.000 4576825.000 -60.000
21568025.000 4576925.000 -86.250
21568725.000 4576742.500 -73.750
21568550.000 4576495.000 -107.500
21569025.000 4576030.000 -62.500
21568900.000 4575715.000 -182.500
21568750.000 4576020.000 -100.000
21569250.000 4575435.000 -197.500
21569000.000 4575420.000 -245.000
21568700.000 4575552.500 -261.250
21569050.000 4575240.000 -320.000
21568775.000 4575315.000 -330.000
21569325.000 4575165.000 -310.000
21569300.000 4574750.000 -382.500
21569150.000 4574580.000 -423.750
21569450.000 4574920.000 -341.250
21569600.000 4574537.500 -382.500
21569400.000 4574495.000 -410.000
21569650.000 4574060.000 -397.500
21569200.000 4574452.500 -437.500
21569875.000 4573795.000 -346.250
21569750.000 4573710.000 -377.500
21569575.000 4573800.000 -418.750
21569750.000 4573710.000 -377.500
21569625.000 4573625.000 -408.750
21569875.000 4573795.000 -346.250
21569625.000 4573625.000 -408.750
21569500.000 4573540.000 -440.000
21569000.000 4574410.000 -465.000
21569225.000 4573612.500 -391.250
21568500.000 4575390.000 -340.000
21568725.000 4574430.000 -423.750
21568750.000 4575405.000 -292.500
21568475.000 4576010.000 -137.500
21568200.000 4576000.000 -175.000
21568375.000 4576247.500 -141.250
21567800.000 4576660.000 -80.000
21567900.000 4575950.000 -171.250
21568075.000 4576742.500 -70.000
21567400.000 4577500.000 -65.000
21567475.000 4576635.000 -52.500
21567650.000 4577750.000 -88.750
21567100.000 4577980.000 5.000
21567425.000 4578110.000 -36.250
21567600.000 4578520.000 -85.000
21567200.000 4578530.000 -47.500
21567125.000 4578812.500 -51.250
21566900.000 4579232.500 -115.000
21566800.000 4578540.000 -10.000
21566500.000 4579100.000 -95.000
21566575.000 4578265.000 31.250
21566500.000 4578355.000 25.000
21566800.000 4577845.000 42.500
21566350.000 4577990.000 72.500
21566875.000 4577737.500 32.500
21566500.000 4577710.000 80.000
21567100.000 4577377.500 -20.000
21566650.000 4577495.000 60.000
21567175.000 4577265.000 -41.250
21566950.000 4577030.000 -17.500
21567150.000 4576610.000 -25.000
21567250.000 4576470.000 -52.500
21566975.000 4576375.000 -38.750
21567525.000 4576565.000 -66.250
21567600.000 4576445.000 -100.000
21567600.000 4575900.000 -167.500
21567400.000 4576230.000 -120.000
21567700.000 4575725.000 -230.000
21567450.000 4575587.500 -257.500
21567950.000 4575862.500 -202.500
21567850.000 4575555.000 -237.500
21568025.000 4575777.500 -206.250
21568250.000 4575320.000 -330.000
21568350.000 4575165.000 -330.000
21568000.000 4575250.000 -320.000
21568450.000 4574450.000 -382.500
21568200.000 4574940.000 -320.000
21568700.000 4574120.000 -355.000
21568550.000 4573975.000 -300.000
21568850.000 4574265.000 -410.000
21568950.000 4573685.000 -342.500
21569150.000 4573370.000 -330.000
21568975.000 4573285.000 -275.000
21569325.000 4573455.000 -385.000
21568675.000 4573757.500 -293.750
21568800.000 4573200.000 -220.000
21568400.000 4573830.000 -245.000
21568175.000 4574470.000 -341.250
21568225.000 4573547.500 -272.500
21568075.000 4573647.500 -272.500
21568525.000 4573075.000 -253.750
21568050.000 4573265.000 -300.000
21568250.000 4572950.000 -287.500
21567875.000 4572982.500 -327.500
21567750.000 4573465.000 -300.000
21567975.000 4572825.000 -321.250
21567700.000 4572700.000 -355.000
21567425.000 4573282.500 -327.500
[...]
POINT_DATA 645
COLOR_SCALARS GocadColor 4
0.313726 0.623529 0.411765 1
0.313726 0.623529 0.411765 1
0.313726 0.623529 0.411765 1
0.313726 0.623529 0.411765 1
0.313726 0.623529 0.411765 1
0.313726 0.623529 0.411765 1
0.313726 0.623529 0.411765 1
0.313726 0.623529 0.411765 1
0.313726 0.623529 0.411765 1
0.313726 0.623529 0.411765 1
0.313726 0.623529 0.411765 1
0.313726 0.623529 0.411765 1
0.313726 0.623529 0.411765 1
0.313726 0.623529 0.411765 1
0.313726 0.623529 0.411765 1
0.313726 0.623529 0.411765 1
0.313726 0.623529 0.411765 1
0.313726 0.623529 0.411765 1
0.313726 0.623529 0.411765 1
0.313726 0.623529 0.411765 1
0.313726 0.623529 0.411765 1
0.313726 0.623529 0.411765 1
0.313726 0.623529 0.411765 1
0.313726 0.623529 0.411765 1
0.313726 0.623529 0.411765 1
0.313726 0.623529 0.411765 1
0.313726 0.623529 0.411765 1
0.313726 0.623529 0.411765 1
0.313726 0.623529 0.411765 1
0.313726 0.623529 0.411765 1
0.313726 0.623529 0.411765 1
0.313726 0.623529 0.411765 1
0.313726 0.623529 0.411765 1
0.313726 0.623529 0.411765 1
0.313726 0.623529 0.411765 1
0.313726 0.623529 0.411765 1
0.313726 0.623529 0.411765 1
0.313726 0.623529 0.411765 1
0.313726 0.623529 0.411765 1
0.313726 0.623529 0.411765 1
0.313726 0.623529 0.411765 1
0.313726 0.623529 0.411765 1
0.313726 0.623529 0.411765 1
0.313726 0.623529 0.411765 1
0.313726 0.623529 0.411765 1
0.313726 0.623529 0.411765 1
0.313726 0.623529 0.411765 1
0.313726 0.623529 0.411765 1
0.313726 0.623529 0.411765 1
0.313726 0.623529 0.411765 1
0.313726 0.623529 0.411765 1
0.313726 0.623529 0.411765 1
0.313726 0.623529 0.411765 1
0.313726 0.623529 0.411765 1
0.313726 0.623529 0.411765 1
0.313726 0.623529 0.411765 1
0.313726 0.623529 0.411765 1
0.313726 0.623529 0.411765 1
0.313726 0.623529 0.411765 1
0.313726 0.623529 0.411765 1
0.313726 0.623529 0.411765 1
0.313726 0.623529 0.411765 1
0.313726 0.623529 0.411765 1
0.313726 0.623529 0.411765 1
0.313726 0.623529 0.411765 1
0.313726 0.623529 0.411765 1
0.313726 0.623529 0.411765 1
0.313726 0.623529 0.411765 1
0.313726 0.623529 0.411765 1
0.313726 0.623529 0.411765 1
0.313726 0.623529 0.411765 1
0.313726 0.623529 0.411765 1
0.313726 0.623529 0.411765 1
0.313726 0.623529 0.411765 1
0.313726 0.623529 0.411765 1
0.313726 0.623529 0.411765 1
0.313726 0.623529 0.411765 1
0.313726 0.623529 0.411765 1
0.313726 0.623529 0.411765 1
0.313726 0.623529 0.411765 1
0.313726 0.623529 0.411765 1
0.313726 0.623529 0.411765 1
0.313726 0.623529 0.411765 1
0.313726 0.623529 0.411765 1
0.313726 0.623529 0.411765 1
0.313726 0.623529 0.411765 1
0.313726 0.623529 0.411765 1
0.313726 0.623529 0.411765 1
0.313726 0.623529 0.411765 1
0.313726 0.623529 0.411765 1
0.313726 0.623529 0.411765 1
0.313726 0.623529 0.411765 1
0.313726 0.623529 0.411765 1
0.313726 0.623529 0.411765 1
0.313726 0.623529 0.411765 1
0.313726 0.623529 0.411765 1
0.313726 0.623529 0.411765 1
0.313726 0.623529 0.411765 1
0.313726 0.623529 0.411765 1
0.313726 0.623529 0.411765 1
0.313726 0.623529 0.411765 1
0.313726 0.623529 0.411765 1
0.313726 0.623529 0.411765 1
0.313726 0.623529 0.411765 1
0.313726 0.623529 0.411765 1
0.313726 0.623529 0.411765 1
0.313726 0.623529 0.411765 1
0.313726 0.623529 0.411765 1
0.313726 0.623529 0.411765 1
0.313726 0.623529 0.411765 1
0.313726 0.623529 0.411765 1
0.313726 0.623529 0.411765 1
0.313726 0.623529 0.411765 1
0.313726 0.623529 0.411765 1
0.313726 0.623529 0.411765 1
0.313726 0.623529 0.411765 1
0.313726 0.623529 0.411765 1
0.313726 0.623529 0.411765 1
0.313726 0.623529 0.411765 1
0.313726 0.623529 0.411765 1
0.313726 0.623529 0.411765 1
0.313726 0.623529 0.411765 1
0.313726 0.623529 0.411765 1
0.313726 0.623529 0.411765 1
0.313726 0.623529 0.411765 1
0.313726 0.623529 0.411765 1
0.313726 0.623529 0.411765 1
0.313726 0.623529 0.411765 1
0.313726 0.623529 0.411765 1
0.313726 0.623529 0.411765 1
0.313726 0.623529 0.411765 1
0.313726 0.623529 0.411765 1
0.313726 0.623529 0.411765 1
0.313726 0.623529 0.411765 1
0.313726 0.623529 0.411765 1
0.313726 0.623529 0.411765 1
0.313726 0.623529 0.411765 1
0.313726 0.623529 0.411765 1
0.313726 0.623529 0.411765 1
0.313726 0.623529 0.411765 1
0.313726 0.623529 0.411765 1
0.313726 0.623529 0.411765 1
0.313726 0.623529 0.411765 1
0.313726 0.623529 0.411765 1
0.313726 0.623529 0.411765 1
0.313726 0.623529 0.411765 1
0.313726 0.623529 0.411765 1
0.313726 0.623529 0.411765 1
0.313726 0.623529 0.411765 1
0.313726 0.623529 0.411765 1
0.313726 0.623529 0.411765 1
0.313726 0.623529 0.411765 1
0.313726 0.623529 0.411765 1
0.313726 0.623529 0.411765 1
0.313726 0.623529 0.411765 1
0.313726 0.623529 0.411765 1
0.313726 0.623529 0.411765 1
0.313726 0.623529 0.411765 1
0.313726 0.623529 0.411765 1
0.313726 0.623529 0.411765 1
0.313726 0.623529 0.411765 1
0.313726 0.623529 0.411765 1
0.313726 0.623529 0.411765 1
0.313726 0.623529 0.411765 1
0.313726 0.623529 0.411765 1
0.313726 0.623529 0.411765 1
0.313726 0.623529 0.411765 1
0.313726 0.623529 0.411765 1
0.313726 0.623529 0.411765 1
0.313726 0.623529 0.411765 1
0.313726 0.623529 0.411765 1
0.313726 0.623529 0.411765 1
0.313726 0.623529 0.411765 1
0.313726 0.623529 0.411765 1
0.313726 0.623529 0.411765 1
0.313726 0.623529 0.411765 1
0.313726 0.623529 0.411765 1
0.313726 0.623529 0.411765 1
0.313726 0.623529 0.411765 1
0.313726 0.623529 0.411765 1
0.313726 0.623529 0.411765 1
0.313726 0.623529 0.411765 1
0.313726 0.623529 0.411765 1
0.313726 0.623529 0.411765 1
0.313726 0.623529 0.411765 1
0.313726 0.623529 0.411765 1
0.313726 0.623529 0.411765 1
0.313726 0.623529 0.411765 1
0.313726 0.623529 0.411765 1
0.313726 0.623529 0.411765 1
0.313726 0.623529 0.411765 1
0.313726 0.623529 0.411765 1
0.313726 0.623529 0.411765 1
0.313726 0.623529 0.411765 1
0.313726 0.623529 0.411765 1
0.313726 0.623529 0.411765 1
0.313726 0.623529 0.411765 1
0.313726 0.623529 0.411765 1
0.313726 0.623529 0.411765 1
0.313726 0.623529 0.411765 1
0.313726 0.623529 0.411765 1
0.313726 0.623529 0.411765 1
0.313726 0.623529 0.411765 1
0.313726 0.623529 0.411765 1
0.313726 0.623529 0.411765 1
0.313726 0.623529 0.411765 1
0.313726 0.623529 0.411765 1
0.313726 0.623529 0.411765 1
0.313726 0.623529 0.411765 1
0.313726 0.623529 0.411765 1
0.313726 0.623529 0.411765 1
0.313726 0.623529 0.411765 1
0.313726 0.623529 0.411765 1
0.313726 0.623529 0.411765 1
0.313726 0.623529 0.411765 1
0.313726 0.623529 0.411765 1
0.313726 0.623529 0.411765 1
0.313726 0.623529 0.411765 1
0.313726 0.623529 0.411765 1
0.313726 0.623529 0.411765 1
0.313726 0.623529 0.411765 1
0.313726 0.623529 0.411765 1
0.313726 0.623529 0.411765 1
0.313726 0.623529 0.411765 1
0.313726 0.623529 0.411765 1
0.313726 0.623529 0.411765 1
0.313726 0.623529 0.411765 1
0.313726 0.623529 0.411765 1
0.313726 0.623529 0.411765 1
0.313726 0.623529 0.411765 1
0.313726 0.623529 0.411765 1
0.313726 0.623529 0.411765 1
0.313726 0.623529 0.411765 1
0.313726 0.623529 0.411765 1
0.313726 0.623529 0.411765 1
0.313726 0.623529 0.411765 1
0.313726 0.623529 0.411765 1
0.313726 0.623529 0.411765 1
0.313726 0.623529 0.411765 1
0.313726 0.623529 0.411765 1
0.313726 0.623529 0.411765 1
0.313726 0.623529 0.411765 1
0.313726 0.623529 0.411765 1
0.313726 0.623529 0.411765 1
0.313726 0.623529 0.411765 1
0.313726 0.623529 0.411765 1
0.313726 0.623529 0.411765 1
0.313726 0.623529 0.411765 1
0.313726 0.623529 0.411765 1
0.313726 0.623529 0.411765 1
0.313726 0.623529 0.411765 1
0.313726 0.623529 0.411765 1
0.313726 0.623529 0.411765 1
0.313726 0.623529 0.411765 1
0.313726 0.623529 0.411765 1
0.313726 0.623529 0.411765 1
0.313726 0.623529 0.411765 1
0.313726 0.623529 0.411765 1
0.313726 0.623529 0.411765 1
0.313726 0.623529 0.411765 1
0.313726 0.623529 0.411765 1
0.313726 0.623529 0.411765 1
0.313726 0.623529 0.411765 1
0.313726 0.623529 0.411765 1
0.313726 0.623529 0.411765 1
0.313726 0.623529 0.411765 1
0.313726 0.623529 0.411765 1
0.313726 0.623529 0.411765 1
0.313726 0.623529 0.411765 1
0.313726 0.623529 0.411765 1
0.313726 0.623529 0.411765 1
0.313726 0.623529 0.411765 1
0.313726 0.623529 0.411765 1
0.313726 0.623529 0.411765 1
0.313726 0.623529 0.411765 1
0.313726 0.623529 0.411765 1
0.313726 0.623529 0.411765 1
0.313726 0.623529 0.411765 1
0.313726 0.623529 0.411765 1
0.313726 0.623529 0.411765 1
0.313726 0.623529 0.411765 1
0.313726 0.623529 0.411765 1
0.313726 0.623529 0.411765 1
0.313726 0.623529 0.411765 1
0.313726 0.623529 0.411765 1
0.313726 0.623529 0.411765 1
0.313726 0.623529 0.411765 1
0.313726 0.623529 0.411765 1
0.313726 0.623529 0.411765 1
0.313726 0.623529 0.411765 1
0.313726 0.623529 0.411765 1
0.313726 0.623529 0.411765 1
0.313726 0.623529 0.411765 1
0.313726 0.623529 0.411765 1
0.313726 0.623529 0.411765 1
0.313726 0.623529 0.411765 1
0.313726 0.623529 0.411765 1
0.313726 0.623529 0.411765 1
0.313726 0.623529 0.411765 1
0.313726 0.623529 0.411765 1
0.313726 0.623529 0.411765 1
0.313726 0.623529 0.411765 1
0.313726 0.623529 0.411765 1
0.313726 0.623529 0.411765 1
0.313726 0.623529 0.411765 1
0.313726 0.623529 0.411765 1
0.313726 0.623529 0.411765 1
0.313726 0.623529 0.411765 1
0.313726 0.623529 0.411765 1
0.313726 0.623529 0.411765 1
0.313726 0.623529 0.411765 1
0.313726 0.623529 0.411765 1
0.313726 0.623529 0.411765 1
0.313726 0.623529 0.411765 1
0.313726 0.623529 0.411765 1
0.313726 0.623529 0.411765 1
0.313726 0.623529 0.411765 1
0.313726 0.623529 0.411765 1
0.313726 0.623529 0.411765 1
0.313726 0.623529 0.411765 1
0.313726 0.623529 0.411765 1
0.313726 0.623529 0.411765 1
0.313726 0.623529 0.411765 1
0.313726 0.623529 0.411765 1
0.313726 0.623529 0.411765 1
0.313726 0.623529 0.411765 1
0.313726 0.623529 0.411765 1
0.313726 0.623529 0.411765 1
0.313726 0.623529 0.411765 1
0.313726 0.623529 0.411765 1
0.313726 0.623529 0.411765 1
0.313726 0.623529 0.411765 1
0.313726 0.623529 0.411765 1
0.313726 0.623529 0.411765 1
0.313726 0.623529 0.411765 1
0.313726 0.623529 0.411765 1
0.313726 0.623529 0.411765 1
0.313726 0.623529 0.411765 1
0.313726 0.623529 0.411765 1
0.313726 0.623529 0.411765 1
0.313726 0.623529 0.411765 1
0.313726 0.623529 0.411765 1
0.313726 0.623529 0.411765 1
0.313726 0.623529 0.411765 1
0.313726 0.623529 0.411765 1
0.313726 0.623529 0.411765 1
0.313726 0.623529 0.411765 1
0.313726 0.623529 0.411765 1
0.313726 0.623529 0.411765 1
0.313726 0.623529 0.411765 1
0.313726 0.623529 0.411765 1
0.313726 0.623529 0.411765 1
0.313726 0.623529 0.411765 1
0.313726 0.623529 0.411765 1
0.313726 0.623529 0.411765 1
0.313726 0.623529 0.411765 1
0.313726 0.623529 0.411765 1
0.313726 0.623529 0.411765 1
0.313726 0.623529 0.411765 1
0.313726 0.623529 0.411765 1
0.313726 0.623529 0.411765 1
0.313726 0.623529 0.411765 1
0.313726 0.623529 0.411765 1
0.313726 0.623529 0.411765 1
0.313726 0.623529 0.411765 1
0.313726 0.623529 0.411765 1
0.313726 0.623529 0.411765 1
0.313726 0.623529 0.411765 1
0.313726 0.623529 0.411765 1
0.313726 0.623529 0.411765 1
0.313726 0.623529 0.411765 1
0.313726 0.623529 0.411765 1
0.313726 0.623529 0.411765 1
0.313726 0.623529 0.411765 1
0.313726 0.623529 0.411765 1
0.313726 0.623529 0.411765 1
0.313726 0.623529 0.411765 1
0.313726 0.623529 0.411765 1
0.313726 0.623529 0.411765 1
0.313726 0.623529 0.411765 1
0.313726 0.623529 0.411765 1
0.313726 0.623529 0.411765 1
0.313726 0.623529 0.411765 1
0.313726 0.623529 0.411765 1
0.313726 0.623529 0.411765 1
0.313726 0.623529 0.411765 1
0.313726 0.623529 0.411765 1
0.313726 0.623529 0.411765 1
0.313726 0.623529 0.411765 1
0.313726 0.623529 0.411765 1
0.313726 0.623529 0.411765 1
0.313726 0.623529 0.411765 1
0.313726 0.623529 0.411765 1
0.313726 0.623529 0.411765 1
0.313726 0.623529 0.411765 1
0.313726 0.623529 0.411765 1
0.313726 0.623529 0.411765 1
0.313726 0.623529 0.411765 1
0.313726 0.623529 0.411765 1
0.313726 0.623529 0.411765 1
0.313726 0.623529 0.411765 1
0.313726 0.623529 0.411765 1
0.313726 0.623529 0.411765 1
0.313726 0.623529 0.411765 1
0.313726 0.623529 0.411765 1
0.313726 0.623529 0.411765 1
0.313726 0.623529 0.411765 1
0.313726 0.623529 0.411765 1
0.313726 0.623529 0.411765 1
0.313726 0.623529 0.411765 1
0.313726 0.623529 0.411765 1
0.313726 0.623529 0.411765 1
0.313726 0.623529 0.411765 1
0.313726 0.623529 0.411765 1
0.313726 0.623529 0.411765 1
0.313726 0.623529 0.411765 1
0.313726 0.623529 0.411765 1
0.313726 0.623529 0.411765 1
0.313726 0.623529 0.411765 1
0.313726 0.623529 0.411765 1
0.313726 0.623529 0.411765 1
0.313726 0.623529 0.411765 1
0.313726 0.623529 0.411765 1
0.313726 0.623529 0.411765 1
0.313726 0.623529 0.411765 1
0.313726 0.623529 0.411765 1
0.313726 0.623529 0.411765 1
0.313726 0.623529 0.411765 1
0.313726 0.623529 0.411765 1
0.313726 0.623529 0.411765 1
0.313726 0.623529 0.411765 1
0.313726 0.623529 0.411765 1
0.313726 0.623529 0.411765 1
0.313726 0.623529 0.411765 1
0.313726 0.623529 0.411765 1
0.313726 0.623529 0.411765 1
0.313726 0.623529 0.411765 1
0.313726 0.623529 0.411765 1
0.313726 0.623529 0.411765 1
0.313726 0.623529 0.411765 1
0.313726 0.623529 0.411765 1
0.313726 0.623529 0.411765 1
0.313726 0.623529 0.411765 1
0.313726 0.623529 0.411765 1
0.313726 0.623529 0.411765 1
0.313726 0.623529 0.411765 1
0.313726 0.623529 0.411765 1
0.313726 0.623529 0.411765 1
0.313726 0.623529 0.411765 1
0.313726 0.623529 0.411765 1
0.313726 0.623529 0.411765 1
0.313726 0.623529 0.411765 1
0.313726 0.623529 0.411765 1
0.313726 0.623529 0.411765 1
0.313726 0.623529 0.411765 1
0.313726 0.623529 0.411765 1
0.313726 0.623529 0.411765 1
0.313726 0.623529 0.411765 1
0.313726 0.623529 0.411765 1
0.313726 0.623529 0.411765 1
0.313726 0.623529 0.411765 1
0.313726 0.623529 0.411765 1
0.313726 0.623529 0.411765 1
0.313726 0.623529 0.411765 1
0.313726 0.623529 0.411765 1
0.313726 0.623529 0.411765 1
0.313726 0.623529 0.411765 1
0.313726 0.623529 0.411765 1
0.313726 0.623529 0.411765 1
0.313726 0.623529 0.411765 1
0.313726 0.623529 0.411765 1
0.313726 0.623529 0.411765 1
0.313726 0.623529 0.411765 1
0.313726 0.623529 0.411765 1
0.313726 0.623529 0.411765 1
0.313726 0.623529 0.411765 1
0.313726 0.623529 0.411765 1
0.313726 0.623529 0.411765 1
0.313726 0.623529 0.411765 1
0.313726 0.623529 0.411765 1
0.313726 0.623529 0.411765 1
0.313726 0.623529 0.411765 1
0.313726 0.623529 0.411765 1
0.313726 0.623529 0.411765 1
0.313726 0.623529 0.411765 1
0.313726 0.623529 0.411765 1
0.313726 0.623529 0.411765 1
0.313726 0.623529 0.411765 1
0.313726 0.623529 0.411765 1
0.313726 0.623529 0.411765 1
0.313726 0.623529 0.411765 1
0.313726 0.623529 0.411765 1
0.313726 0.623529 0.411765 1
0.313726 0.623529 0.411765 1
0.313726 0.623529 0.411765 1
0.313726 0.623529 0.411765 1
0.313726 0.623529 0.411765 1
0.313726 0.623529 0.411765 1
0.313726 0.623529 0.411765 1
0.313726 0.623529 0.411765 1
0.313726 0.623529 0.411765 1
0.313726 0.623529 0.411765 1
0.313726 0.623529 0.411765 1
0.313726 0.623529 0.411765 1
0.313726 0.623529 0.411765 1
0.313726 0.623529 0.411765 1
0.313726 0.623529 0.411765 1
0.313726 0.623529 0.411765 1
0.313726 0.623529 0.411765 1
0.313726 0.623529 0.411765 1
0.313726 0.623529 0.411765 1
0.313726 0.623529 0.411765 1
0.313726 0.623529 0.411765 1
0.313726 0.623529 0.411765 1
0.313726 0.623529 0.411765 1
0.313726 0.623529 0.411765 1
0.313726 0.623529 0.411765 1
0.313726 0.623529 0.411765 1
0.313726 0.623529 0.411765 1
0.313726 0.623529 0.411765 1
0.313726 0.623529 0.411765 1
0.313726 0.623529 0.411765 1
0.313726 0.623529 0.411765 1
0.313726 0.623529 0.411765 1
0.313726 0.623529 0.411765 1
0.313726 0.623529 0.411765 1
0.313726 0.623529 0.411765 1
0.313726 0.623529 0.411765 1
0.313726 0.623529 0.411765 1
0.313726 0.623529 0.411765 1
0.313726 0.623529 0.411765 1
0.313726 0.623529 0.411765 1
0.313726 0.623529 0.411765 1
0.313726 0.623529 0.411765 1
0.313726 0.623529 0.411765 1
0.313726 0.623529 0.411765 1
0.313726 0.623529 0.411765 1
0.313726 0.623529 0.411765 1
0.313726 0.623529 0.411765 1
0.313726 0.623529 0.411765 1
0.313726 0.623529 0.411765 1
0.313726 0.623529 0.411765 1
0.313726 0.623529 0.411765 1
0.313726 0.623529 0.411765 1
0.313726 0.623529 0.411765 1
0.313726 0.623529 0.411765 1
0.313726 0.623529 0.411765 1
0.313726 0.623529 0.411765 1
0.313726 0.623529 0.411765 1
0.313726 0.623529 0.411765 1
0.313726 0.623529 0.411765 1
0.313726 0.623529 0.411765 1
0.313726 0.623529 0.411765 1
0.313726 0.623529 0.411765 1
0.313726 0.623529 0.411765 1
0.313726 0.623529 0.411765 1
0.313726 0.623529 0.411765 1
0.313726 0.623529 0.411765 1
0.313726 0.623529 0.411765 1
0.313726 0.623529 0.411765 1
0.313726 0.623529 0.411765 1
0.313726 0.623529 0.411765 1
0.313726 0.623529 0.411765 1
0.313726 0.623529 0.411765 1
0.313726 0.623529 0.411765 1
0.313726 0.623529 0.411765 1
0.313726 0.623529 0.411765 1
0.313726 0.623529 0.411765 1
0.313726 0.623529 0.411765 1
0.313726 0.623529 0.411765 1
0.313726 0.623529 0.411765 1
0.313726 0.623529 0.411765 1
0.313726 0.623529 0.411765 1
0.313726 0.623529 0.411765 1
0.313726 0.623529 0.411765 1
0.313726 0.623529 0.411765 1
0.313726 0.623529 0.411765 1
0.313726 0.623529 0.411765 1
0.313726 0.623529 0.411765 1
0.313726 0.623529 0.411765 1
0.313726 0.623529 0.411765 1
0.313726 0.623529 0.411765 1
0.313726 0.623529 0.411765 1
0.313726 0.623529 0.411765 1
0.313726 0.623529 0.411765 1
0.313726 0.623529 0.411765 1
0.313726 0.623529 0.411765 1
0.313726 0.623529 0.411765 1
0.313726 0.623529 0.411765 1
0.313726 0.623529 0.411765 1
0.313726 0.623529 0.411765 1
0.313726 0.623529 0.411765 1
0.313726 0.623529 0.411765 1
0.313726 0.623529 0.411765 1
0.313726 0.623529 0.411765 1
0.313726 0.623529 0.411765 1
0.313726 0.623529 0.411765 1
0.313726 0.623529 0.411765 1
0.313726 0.623529 0.411765 1
0.313726 0.623529 0.411765 1
0.313726 0.623529 0.411765 1
0.313726 0.623529 0.411765 1
0.313726 0.623529 0.411765 1
0.313726 0.623529 0.411765 1
0.313726 0.623529 0.411765 1
0.313726 0.623529 0.411765 1
0.313726 0.623529 0.411765 1
0.313726 0.623529 0.411765 1
0.313726 0.623529 0.411765 1
0.313726 0.623529 0.411765 1
0.313726 0.623529 0.411765 1
0.313726 0.623529 0.411765 1
0.313726 0.623529 0.411765 1
0.313726 0.623529 0.411765 1
0.313726 0.623529 0.411765 1
0.313726 0.623529 0.411765 1
0.313726 0.623529 0.411765 1
0.313726 0.623529 0.411765 1
0.313726 0.623529 0.411765 1
0.313726 0.623529 0.411765 1
0.313726 0.623529 0.411765 1
0.313726 0.623529 0.411765 1
0.313726 0.623529 0.411765 1
0.313726 0.623529 0.411765 1
0.313726 0.623529 0.411765 1
0.313726 0.623529 0.411765 1
0.313726 0.623529 0.411765 1
0.313726 0.623529 0.411765 1
0.313726 0.623529 0.411765 1
0.313726 0.623529 0.411765 1
0.313726 0.623529 0.411765 1
0.313726 0.623529 0.411765 1
0.313726 0.623529 0.411765 1
0.313726 0.623529 0.411765 1
0.313726 0.623529 0.411765 1
0.313726 0.623529 0.411765 1
0.313726 0.623529 0.411765 1
0.313726 0.623529 0.411765 1
0.313726 0.623529 0.411765 1
0.313726 0.623529 0.411765 1
0.313726 0.623529 0.411765 1
0.313726 0.623529 0.411765 1
0.313726 0.623529 0.411765 1
0.313726 0.623529 0.411765 1
0.313726 0.623529 0.411765 1

