# vtk DataFile Version 3.0
Gocad TSurf to VTK
ASCII
DATASET POLYDATA
POINTS 123 float
21557663.266 4565387.813 264.639
21557520.531 4565375.711 263.908
21557700.000 4565447.500 232.500
21557600.000 4565530.000 180.000
21557726.500 4565393.172 264.964
21557849.172 4565443.770 269.793
21558000.000 4565560.000 266.250
21558000.000 4565680.000 225.000
21558000.000 4565526.254 277.851
21558050.000 4565470.000 265.000
21558125.000 4565617.500 266.250
21558042.531 4565465.523 271.344
21558055.453 4565447.070 269.367
21558150.000 4565500.000 252.500
21558114.313 4565435.762 267.965
21558220.547 4565415.344 265.434
21558194.422 4565524.434 276.934
21558178.547 4565590.723 283.922
21558223.188 4565658.082 290.795
21558261.781 4565716.898 296.799
21558272.688 4565733.422 298.485
21558302.625 4565807.102 300.655
21558375.000 4565975.000 287.500
21558000.000 4565955.000 162.500
21558409.328 4565944.953 306.186
21558412.734 4565949.340 306.368
21558451.719 4566007.605 308.598
21558519.625 4566109.109 312.481
21558125.000 4566145.000 162.500
21558594.500 4566221.012 316.763
21558604.344 4566235.746 317.326
21558688.688 4566384.566 317.514
21558000.000 4566230.000 100.000
21558000.000 4566092.500 131.250
21558693.203 4566392.547 317.524
21558791.797 4566566.512 317.743
21558793.547 4566572.492 317.832
21558625.000 4566637.500 261.250
21558050.000 4566535.000 92.500
21558856.797 4566725.582 319.200
21558915.500 4566867.672 320.469
21558970.141 4566999.898 321.650
21558986.875 4567037.066 321.913
21559049.047 4567186.762 323.234
21558500.000 4567185.000 202.500
21557500.000 4566862.500 -61.250
21559049.391 4567194.047 323.432
21559052.047 4567217.203 324.409
21559038.406 4567295.129 328.536
21559033.516 4567323.043 330.014
21559000.000 4567375.000 327.500
21558950.000 4567452.500 323.750
21558900.000 4567530.000 320.000
21557300.000 4566870.000 -110.000
21558650.000 4567522.500 253.750
21557750.000 4567342.500 13.750
21558850.000 4567602.500 306.250
21558800.000 4567675.000 292.500
21558750.000 4567747.500 278.750
21557900.000 4567500.000 55.000
21558700.000 4567820.000 265.000
21558525.000 4567835.000 206.250
21557950.000 4567690.000 42.500
21558675.000 4567905.000 251.250
21558650.000 4567990.000 237.500
21558625.000 4568075.000 223.750
21558175.000 4567865.000 88.750
21558600.000 4568160.000 210.000
21558000.000 4567880.000 30.000
21557975.000 4567785.000 36.250
21557800.000 4567820.000 -15.000
21557825.000 4567740.000 2.500
21557750.000 4567707.500 -18.750
21557700.000 4567595.000 -22.500
21557650.000 4567482.500 -26.250
21557600.000 4567370.000 -30.000
21557525.000 4567245.000 -50.000
21557425.000 4567207.500 -75.000
21557450.000 4567120.000 -70.000
21557375.000 4566995.000 -90.000
21557250.000 4567045.000 -120.000
21557075.000 4566882.500 -165.000
21556900.000 4566720.000 -210.000
21557025.000 4566680.000 -165.000
21557375.000 4566637.500 -50.000
21556900.000 4566622.500 -161.250
21556775.000 4566575.000 -140.000
21556900.000 4566427.500 -63.750
21556650.000 4566430.000 -70.000
21556525.000 4566285.000 0.000
21556900.000 4566197.500 6.250
21556400.000 4566140.000 70.000
21556525.000 4566055.000 70.000
21556775.000 4565885.000 70.000
21556375.000 4565997.500 105.000
21556350.000 4565855.000 140.000
21556325.000 4565712.500 175.000
21556300.000 4565570.000 210.000
21556900.000 4565800.000 70.000
21556900.000 4565932.500 48.750
21556418.125 4565521.063 224.344
21556484.031 4565503.930 227.822
21556500.125 4565499.750 228.671
21556950.000 4565540.000 182.500
21557125.000 4565477.500 205.000
21556705.641 4565446.332 239.516
21556860.688 4565406.035 247.696
21556922.641 4565389.930 250.966
21556975.000 4565410.000 238.750
21556965.375 4565378.828 253.220
21556981.672 4565375.301 253.764
21557053.813 4565365.016 256.258
21557099.563 4565366.707 257.977
21557186.063 4565371.250 260.567
21557300.313 4565366.820 263.802
21557326.969 4565367.332 263.756
21557350.000 4565857.500 85.000
21557440.953 4565368.965 263.500
21557850.000 4565765.000 176.250
21557400.000 4566290.000 0.000
21557850.000 4566312.500 67.500
21557025.000 4566252.500 -3.750
21556900.000 4566065.000 27.500

POLYGONS 169 676
3 43 38 44
3 53 45 84
3 8 6 9
3 71 72 70
3 87 84 90
3 105 102 103
3 66 61 62
3 33 32 28
3 118 3 116
3 16 15 13
3 110 109 108
3 0 1 2
3 80 79 81
3 41 37 38
3 83 85 82
3 102 98 103
3 97 96 93
3 106 105 103
3 54 55 59
3 83 53 84
3 115 104 3
3 101 100 98
3 36 35 32
3 11 8 9
3 76 77 75
3 77 78 80
3 5 2 6
3 66 69 68
3 55 53 79
3 21 7 22
3 36 32 37
3 109 107 108
3 104 103 98
3 18 17 10
3 45 44 38
3 73 72 62
3 33 118 116
3 120 32 119
3 94 91 92
3 33 23 118
3 26 25 22
3 45 53 44
3 74 73 62
3 1 3 2
3 30 29 28
3 96 95 93
3 67 65 66
3 62 71 69
3 92 91 90
3 19 18 10
3 103 104 108
3 88 86 87
3 32 120 38
3 116 3 104
3 107 106 103
3 37 32 38
3 1 117 3
3 53 52 44
3 84 121 90
3 43 42 38
3 32 33 119
3 52 51 44
3 23 33 28
3 76 78 77
3 95 92 93
3 47 46 44
3 98 100 97
3 48 44 49
3 75 59 55
3 56 54 57
3 55 76 75
3 27 22 28
3 54 53 55
3 88 87 89
3 113 112 104
3 5 4 2
3 31 28 32
3 65 64 66
3 87 83 84
3 60 58 59
3 38 120 45
3 4 0 2
3 48 47 44
3 72 71 62
3 12 11 9
3 119 121 84
3 69 71 70
3 58 54 59
3 120 84 45
3 63 61 64
3 116 98 119
3 95 94 92
3 7 6 2
3 122 90 121
3 39 36 37
3 17 16 13
3 12 9 13
3 102 101 98
3 107 103 108
3 22 7 23
3 64 61 66
3 92 90 93
3 86 85 87
3 91 89 90
3 54 52 53
3 110 108 104
3 64 65 63
3 31 30 28
3 81 53 82
3 13 9 10
3 98 93 99
3 66 68 67
3 7 21 10
3 116 104 98
3 29 27 28
3 56 52 54
3 10 9 6
3 33 116 119
3 7 118 23
3 61 60 59
3 14 12 13
3 78 79 80
3 112 111 104
3 98 97 93
3 78 76 55
3 98 99 119
3 8 5 6
3 44 50 49
3 93 122 99
3 115 114 104
3 17 13 10
3 55 79 78
3 85 83 87
3 111 110 104
3 21 20 10
3 83 82 53
3 7 10 6
3 35 34 32
3 117 115 3
3 114 113 104
3 74 59 75
3 99 121 119
3 61 59 62
3 41 40 37
3 34 31 32
3 120 119 84
3 15 14 13
3 59 74 62
3 90 122 93
3 46 43 44
3 42 41 38
3 79 53 81
3 58 57 54
3 51 50 44
3 63 65 60
3 40 39 37
3 63 60 61
3 70 68 69
3 7 3 118
3 27 26 22
3 25 24 22
3 2 3 7
3 89 87 90
3 20 19 10
3 24 21 22
3 85 86 82
3 99 122 121
3 23 28 22
3 66 62 69

POINT_DATA 123
COLOR_SCALARS GocadColor 4
0.819608 0.698116 0.549615 1
0.819608 0.698116 0.549615 1
0.819608 0.698116 0.549615 1
0.819608 0.698116 0.549615 1
0.819608 0.698116 0.549615 1
0.819608 0.698116 0.549615 1
0.819608 0.698116 0.549615 1
0.819608 0.698116 0.549615 1
0.819608 0.698116 0.549615 1
0.819608 0.698116 0.549615 1
0.819608 0.698116 0.549615 1
0.819608 0.698116 0.549615 1
0.819608 0.698116 0.549615 1
0.819608 0.698116 0.549615 1
0.819608 0.698116 0.549615 1
0.819608 0.698116 0.549615 1
0.819608 0.698116 0.549615 1
0.819608 0.698116 0.549615 1
0.819608 0.698116 0.549615 1
0.819608 0.698116 0.549615 1
0.819608 0.698116 0.549615 1
0.819608 0.698116 0.549615 1
0.819608 0.698116 0.549615 1
0.819608 0.698116 0.549615 1
0.819608 0.698116 0.549615 1
0.819608 0.698116 0.549615 1
0.819608 0.698116 0.549615 1
0.819608 0.698116 0.549615 1
0.819608 0.698116 0.549615 1
0.819608 0.698116 0.549615 1
0.819608 0.698116 0.549615 1
0.819608 0.698116 0.549615 1
0.819608 0.698116 0.549615 1
0.819608 0.698116 0.549615 1
0.819608 0.698116 0.549615 1
0.819608 0.698116 0.549615 1
0.819608 0.698116 0.549615 1
0.819608 0.698116 0.549615 1
0.819608 0.698116 0.549615 1
0.819608 0.698116 0.549615 1
0.819608 0.698116 0.549615 1
0.819608 0.698116 0.549615 1
0.819608 0.698116 0.549615 1
0.819608 0.698116 0.549615 1
0.819608 0.698116 0.549615 1
0.819608 0.698116 0.549615 1
0.819608 0.698116 0.549615 1
0.819608 0.698116 0.549615 1
0.819608 0.698116 0.549615 1
0.819608 0.698116 0.549615 1
0.819608 0.698116 0.549615 1
0.819608 0.698116 0.549615 1
0.819608 0.698116 0.549615 1
0.819608 0.698116 0.549615 1
0.819608 0.698116 0.549615 1
0.819608 0.698116 0.549615 1
0.819608 0.698116 0.549615 1
0.819608 0.698116 0.549615 1
0.819608 0.698116 0.549615 1
0.819608 0.698116 0.549615 1
0.819608 0.698116 0.549615 1
0.819608 0.698116 0.549615 1
0.819608 0.698116 0.549615 1
0.819608 0.698116 0.549615 1
0.819608 0.698116 0.549615 1
0.819608 0.698116 0.549615 1
0.819608 0.698116 0.549615 1
0.819608 0.698116 0.549615 1
0.819608 0.698116 0.549615 1
0.819608 0.698116 0.549615 1
0.819608 0.698116 0.549615 1
0.819608 0.698116 0.549615 1
0.819608 0.698116 0.549615 1
0.819608 0.698116 0.549615 1
0.819608 0.698116 0.549615 1
0.819608 0.698116 0.549615 1
0.819608 0.698116 0.549615 1
0.819608 0.698116 0.549615 1
0.819608 0.698116 0.549615 1
0.819608 0.698116 0.549615 1
0.819608 0.698116 0.549615 1
0.819608 0.698116 0.549615 1
0.819608 0.698116 0.549615 1
0.819608 0.698116 0.549615 1
0.819608 0.698116 0.549615 1
0.819608 0.698116 0.549615 1
0.819608 0.698116 0.549615 1
0.819608 0.698116 0.549615 1
0.819608 0.698116 0.549615 1
0.819608 0.698116 0.549615 1
0.819608 0.698116 0.549615 1
0.819608 0.698116 0.549615 1
0.819608 0.698116 0.549615 1
0.819608 0.698116 0.549615 1
0.819608 0.698116 0.549615 1
0.819608 0.698116 0.549615 1
0.819608 0.698116 0.549615 1
0.819608 0.698116 0.549615 1
0.819608 0.698116 0.549615 1
0.819608 0.698116 0.549615 1
0.819608 0.698116 0.549615 1
0.819608 0.698116 0.549615 1
0.819608 0.698116 0.549615 1
0.819608 0.698116 0.549615 1
0.819608 0.698116 0.549615 1
0.819608 0.698116 0.549615 1
0.819608 0.698116 0.549615 1
0.819608 0.698116 0.549615 1
0.819608 0.698116 0.549615 1
0.819608 0.698116 0.549615 1
0.819608 0.698116 0.549615 1
0.819608 0.698116 0.549615 1
0.819608 0.698116 0.549615 1
0.819608 0.698116 0.549615 1
0.819608 0.698116 0.549615 1
0.819608 0.698116 0.549615 1
0.819608 0.698116 0.549615 1
0.819608 0.698116 0.549615 1
0.819608 0.698116 0.549615 1
0.819608 0.698116 0.549615 1
0.819608 0.698116 0.549615 1
0.819608 0.698116 0.549615 1
0.819608 0.698116 0.549615 1

