# vtk DataFile Version 3.0
Gocad TSurf to VTK
ASCII
DATASET POLYDATA
POINTS 237 float
21613500.000 4576045.000 -1047.500
21613400.000 4576160.000 -1075.000
21613350.000 4576352.500 -1102.500
21613300.000 4576275.000 -1102.500
21613800.000 4576240.000 -1020.000
21613425.000 4575955.000 -1065.000
21613600.000 4575930.000 -1020.000
21612950.000 4575640.000 -1052.500
21613000.000 4575250.000 -905.000
21612925.000 4575835.000 -1126.250
21613075.000 4576005.000 -1155.000
21612700.000 4575595.000 -1115.000
21612600.000 4575710.000 -1185.000
21612800.000 4575480.000 -1045.000
21612800.000 4575475.000 -1045.000
21612900.000 4575365.000 -975.000
21612900.000 4575357.500 -975.000
21613000.000 4575240.000 -905.000
21613100.000 4575120.000 -947.500
21613250.000 4575297.500 -975.000
21613100.000 4575112.500 -947.500
21613200.000 4574990.000 -990.000
21613200.000 4574985.000 -990.000
21613300.000 4574857.500 -1032.500
21613400.000 4574730.000 -1075.000
21613750.000 4575392.500 -1115.000
21614150.000 4575395.000 -1210.000
21613900.000 4575562.500 -1143.750
21613975.000 4575135.000 -1175.000
21614525.000 4575405.000 -1263.750
21613525.000 4574602.500 -1092.500
21613650.000 4574475.000 -1110.000
21613775.000 4574347.500 -1127.500
21613900.000 4574220.000 -1145.000
21614225.000 4574430.000 -1155.000
21613975.000 4574100.000 -1088.750
21614050.000 4573980.000 -1032.500
21614050.000 4573975.000 -1032.500
21614875.000 4574850.000 -1175.000
21614200.000 4573740.000 -920.000
21614125.000 4573852.500 -976.250
21615200.000 4575060.000 -1185.000
21614500.000 4573845.000 -1017.500
21615050.000 4575540.000 -1267.500
21615525.000 4575685.000 -1265.000
21615325.000 4575972.500 -1236.250
21615700.000 4575680.000 -1255.000
21615725.000 4575437.500 -1262.500
21615575.000 4575777.500 -1248.750
21615450.000 4575875.000 -1242.500
21615725.000 4575987.500 -1207.500
21615375.000 4576042.500 -1222.500
21615900.000 4575960.000 -1200.000
21616000.000 4575785.000 -1137.500
21615825.000 4576117.500 -1102.500
21616100.000 4576200.000 -1045.000
21616150.000 4575965.000 -1021.250
21615850.000 4576395.000 -927.500
21615775.000 4576585.000 -798.750
21616200.000 4576670.000 -758.750
21616000.000 4576665.000 -752.500
21616400.000 4576640.000 -780.000
21616275.000 4576722.500 -770.000
21616300.000 4576242.500 -811.250
21616525.000 4576497.500 -845.000
21616300.000 4575915.000 -857.500
21616450.000 4576085.000 -880.000
21616200.000 4575730.000 -997.500
21616300.000 4575587.500 -903.750
21616100.000 4575610.000 -1075.000
21615850.000 4575575.000 -1178.750
21616150.000 4575365.000 -1026.250
21616300.000 4575260.000 -950.000
21615800.000 4574710.000 -1285.000
21616450.000 4575780.000 -918.750
21616500.000 4575855.000 -911.250
21616600.000 4576300.000 -887.500
21616700.000 4576450.000 -872.500
21616750.000 4576820.000 -856.250
21616550.000 4577097.500 -831.250
21616900.000 4577045.000 -833.750
21616900.000 4577340.000 -825.000
21617100.000 4577640.000 -795.000
21616500.000 4577285.000 -852.500
21616650.000 4577500.000 -860.000
21616075.000 4576955.000 -757.500
21616425.000 4576925.000 -792.500
21615900.000 4576970.000 -740.000
21616525.000 4577580.000 -877.500
21616025.000 4576887.500 -750.000
21615850.000 4576712.500 -746.250
21616100.000 4576770.000 -752.500
21615700.000 4576760.000 -740.000
21615475.000 4576682.500 -747.500
21615725.000 4577020.000 -695.000
21615575.000 4576862.500 -695.000
21615750.000 4577310.000 -712.500
21615550.000 4577070.000 -650.000
21616200.000 4577657.500 -842.500
21615800.000 4577652.500 -737.500
21616300.000 4577795.000 -877.500
21616525.000 4578087.500 -918.750
21616200.000 4577930.000 -860.000
21616175.000 4578162.500 -856.250
21616100.000 4578065.000 -842.500
21616000.000 4578200.000 -825.000
21616400.000 4578660.000 -795.000
21615600.000 4577650.000 -685.000
21615675.000 4577480.000 -698.750
21615825.000 4578205.000 -807.500
21615450.000 4577935.000 -720.000
21615900.000 4578297.500 -790.000
21615800.000 4578395.000 -755.000
21616200.000 4578642.500 -767.500
21616000.000 4578625.000 -740.000
21616300.000 4578760.000 -715.000
21616200.000 4578860.000 -635.000
21616400.000 4578770.000 -795.000
21616300.000 4578842.500 -715.000
21616525.000 4578645.000 -830.000
21616475.000 4578507.500 -833.750
21616650.000 4578520.000 -865.000
21616550.000 4578355.000 -872.500
21616650.000 4578465.000 -865.000
21616775.000 4578367.500 -900.000
21616775.000 4578395.000 -900.000
21616625.000 4578202.500 -911.250
21616900.000 4578270.000 -935.000
21616700.000 4578050.000 -950.000
21616950.000 4578112.500 -900.000
21616575.000 4577655.000 -870.000
21616800.000 4577947.500 -911.250
21616750.000 4577650.000 -845.000
21616900.000 4577845.000 -872.500
21616925.000 4577645.000 -820.000
21617000.000 4577742.500 -833.750
21617050.000 4577797.500 -830.000
21617000.000 4577955.000 -865.000
21616200.000 4578915.000 -635.000
21616100.000 4578987.500 -555.000
21616000.000 4579060.000 -475.000
21615800.000 4578607.500 -712.500
21615700.000 4578492.500 -720.000
21615675.000 4578812.500 -673.750
21615225.000 4578582.500 -902.500
21615975.000 4579165.000 -516.250
21615750.000 4579035.000 -662.500
21615975.000 4579162.500 -516.250
21615950.000 4579265.000 -557.500
21615950.000 4579270.000 -557.500
21615925.000 4579367.500 -598.750
21615900.000 4579470.000 -640.000
21615900.000 4579480.000 -640.000
21615100.000 4578580.000 -975.000
21615150.000 4578490.000 -920.000
21615000.000 4578325.000 -972.500
21615200.000 4578400.000 -865.000
21615100.000 4578290.000 -900.000
21615250.000 4578310.000 -810.000
21615200.000 4578255.000 -827.500
21615050.000 4578000.000 -805.000
21615225.000 4577822.500 -715.000
21615000.000 4578120.000 -885.000
21614800.000 4578082.500 -976.250
21614950.000 4578240.000 -965.000
21614900.000 4578360.000 -1045.000
21614700.000 4578150.000 -1060.000
21614700.000 4577760.000 -837.500
21614200.000 4577500.000 -1005.000
21614325.000 4577467.500 -907.500
21614450.000 4577435.000 -810.000
21614250.000 4577365.000 -900.000
21614350.000 4577340.000 -775.000
21613875.000 4576945.000 -836.250
21613700.000 4576940.000 -920.000
21614350.000 4577095.000 -690.000
21614000.000 4576677.500 -826.250
21613900.000 4576770.000 -857.500
21614525.000 4576902.500 -620.000
21614500.000 4577180.000 -545.000
21614500.000 4576665.000 -760.000
21614700.000 4576697.500 -742.500
21614200.000 4576505.000 -871.250
21613700.000 4576520.000 -990.000
21614325.000 4576225.000 -1080.000
21615050.000 4576400.000 -977.500
21613975.000 4576235.000 -1040.000
21614175.000 4575940.000 -1155.000
21614050.000 4576040.000 -1110.000
21614650.000 4575770.000 -1247.500
21615250.000 4576660.000 -767.500
21615350.000 4576775.000 -685.000
21614775.000 4576787.500 -690.000
21615100.000 4576960.000 -560.000
21614650.000 4576845.000 -655.000
21614700.000 4576955.000 -635.000
21614900.000 4577165.000 -587.500
21614600.000 4577067.500 -590.000
21614650.000 4577125.000 -548.750
21614700.000 4577370.000 -615.000
21615075.000 4577220.000 -573.750
21615375.000 4577120.000 -605.000
21615250.000 4576910.000 -605.000
21615450.000 4576965.000 -650.000
21615400.000 4576860.000 -650.000
21615375.000 4578077.500 -737.500
21615475.000 4578215.000 -772.500
21614700.000 4577565.000 -726.250
21614575.000 4577402.500 -712.500
21614425.000 4577260.000 -660.000
21613950.000 4575885.000 -1110.000
21613800.000 4575685.000 -1102.500
21613775.000 4575907.500 -1065.000
21613925.000 4576140.000 -1065.000
21613600.000 4576800.000 -960.000
21613725.000 4576747.500 -918.750
21613200.000 4576390.000 -1130.000
21612900.000 4576030.000 -1200.000
21613850.000 4576695.000 -877.500
21613800.000 4576855.000 -888.750
21615650.000 4574790.000 -1260.000
21615350.000 4574970.000 -1210.000
21615800.000 4574700.000 -1285.000
21615575.000 4574617.500 -1278.750
21615700.000 4574470.000 -1310.000
21615450.000 4574765.000 -1247.500
21615300.000 4574610.000 -1247.500
21615250.000 4574835.000 -1216.250
21615100.000 4574055.000 -1212.500
21614575.000 4573310.000 -1088.750
21615350.000 4574385.000 -1278.750
21615400.000 4574160.000 -1310.000
21614700.000 4573170.000 -1145.000
21614450.000 4573450.000 -1032.500
21614325.000 4573597.500 -976.250
21614325.000 4573590.000 -976.250
21614200.000 4573730.000 -920.000

POLYGONS 417 1668
3 176 175 178
3 101 128 88
3 162 159 160
3 147 140 145
3 225 220 223
3 50 52 46
3 207 170 167
3 143 142 144
3 181 192 190
3 199 161 200
3 200 196 199
3 158 156 144
3 134 82 81
3 108 107 99
3 18 8 19
3 197 195 178
3 226 225 223
3 117 115 118
3 57 58 60
3 65 66 74
3 90 92 87
3 103 106 120
3 126 127 128
3 207 160 161
3 97 96 94
3 157 159 162
3 218 215 219
3 65 56 63
3 193 202 190
3 220 73 222
3 175 179 178
3 88 84 83
3 53 52 56
3 71 72 47
3 233 235 234
3 34 33 28
3 192 195 196
3 69 53 67
3 191 204 95
3 12 217 9
3 2 216 214
3 223 220 222
3 119 121 120
3 0 5 1
3 134 132 133
3 132 130 131
3 112 142 141
3 97 108 96
3 34 29 38
3 6 4 212
3 135 82 134
3 171 172 175
3 135 134 133
3 220 221 47
3 124 122 123
3 2 1 3
3 105 107 109
3 158 159 156
3 180 181 182
3 10 3 5
3 92 95 94
3 114 116 113
3 169 168 167
3 80 81 82
3 42 229 233
3 184 185 189
3 159 157 156
3 59 62 61
3 30 24 28
3 150 146 151
3 207 167 160
3 7 11 9
3 91 60 89
3 230 223 224
3 50 46 48
3 161 110 107
3 122 101 103
3 228 226 230
3 9 11 12
3 72 73 47
3 26 27 187
3 6 0 4
3 179 197 178
3 157 155 154
3 28 26 29
3 124 123 125
3 100 101 88
3 5 6 7
3 66 64 76
3 25 24 21
3 101 122 126
3 89 85 91
3 161 107 200
3 102 104 103
3 173 174 168
3 121 123 120
3 100 102 103
3 178 181 180
3 149 145 146
3 107 201 200
3 142 112 109
3 227 225 226
3 117 106 115
3 172 209 175
3 215 218 183
3 171 168 169
3 192 193 190
3 208 179 209
3 58 51 185
3 189 29 187
3 74 72 68
3 86 62 85
3 124 126 122
3 136 82 135
3 105 111 113
3 74 75 72
3 77 78 80
3 220 225 221
3 171 173 168
3 113 111 114
3 53 46 52
3 173 171 175
3 10 217 216
3 195 197 198
3 86 61 62
3 98 87 96
3 106 119 120
3 142 158 144
3 118 115 116
3 87 98 88
3 130 132 84
3 6 212 211
3 120 122 103
3 105 106 103
3 6 8 7
3 204 203 95
3 202 193 201
3 110 205 206
3 210 188 187
3 169 170 172
3 7 13 11
3 105 109 111
3 22 20 21
3 6 5 0
3 155 165 153
3 175 176 173
3 4 186 213
3 228 231 232
3 171 169 172
3 21 18 19
3 9 10 5
3 125 127 124
3 63 55 61
3 212 213 210
3 59 55 57
3 85 89 87
3 227 226 42
3 62 91 85
3 38 41 39
3 153 152 146
3 70 69 71
3 78 81 80
3 141 140 116
3 32 31 28
3 29 34 28
3 204 191 202
3 170 209 172
3 145 140 143
3 20 18 21
3 209 179 175
3 44 46 41
3 185 190 93
3 226 223 230
3 215 174 219
3 227 41 221
3 27 210 187
3 210 211 212
3 190 191 93
3 62 59 91
3 166 163 167
3 58 57 54
3 160 159 158
3 195 194 178
3 48 44 49
3 2 3 216
3 199 207 161
3 7 9 5
3 201 193 200
3 182 181 184
3 67 53 56
3 48 46 44
3 3 1 5
3 194 195 192
3 191 190 202
3 194 181 178
3 215 214 174
3 42 41 227
3 84 132 81
3 83 87 88
3 56 52 55
3 85 87 83
3 136 133 137
3 17 8 18
3 180 176 178
3 109 112 111
3 192 181 194
3 144 156 154
3 68 67 65
3 146 145 143
3 74 76 75
3 79 83 81
3 196 198 199
3 186 188 213
3 228 230 231
3 79 86 85
3 60 90 89
3 144 154 153
3 15 8 16
3 67 56 65
3 181 185 184
3 95 203 97
3 118 116 138
3 226 228 42
3 139 138 116
3 93 92 58
3 27 211 210
3 207 199 208
3 142 206 158
3 55 54 57
3 24 25 26
3 214 215 183
3 90 87 89
3 0 2 4
3 225 227 221
3 128 101 126
3 212 4 213
3 114 112 141
3 101 100 103
3 195 198 196
3 51 49 45
3 131 130 128
3 2 214 183
3 114 141 116
3 74 66 76
3 29 43 38
3 106 105 113
3 98 100 88
3 104 102 98
3 42 39 41
3 184 186 182
3 203 202 201
3 24 23 21
3 110 206 109
3 167 170 169
3 83 84 81
3 170 208 209
3 185 93 58
3 230 224 231
3 94 95 97
3 173 219 174
3 40 37 36
3 137 133 131
3 83 79 85
3 25 27 26
3 64 66 63
3 50 48 51
3 45 44 43
3 130 84 88
3 123 122 120
3 111 112 114
3 156 157 154
3 87 92 94
3 109 107 110
3 29 189 43
3 10 9 217
3 183 218 176
3 69 70 53
3 206 142 109
3 99 104 98
3 128 127 129
3 13 14 11
3 69 67 68
3 38 39 36
3 166 165 164
3 187 188 186
3 28 24 26
3 107 105 99
3 66 65 63
3 234 236 39
3 113 116 115
3 25 211 27
3 106 117 119
3 155 157 164
3 8 15 7
3 78 64 79
3 155 164 165
3 229 42 228
3 140 141 142
3 204 202 203
3 104 105 103
3 15 13 7
3 47 70 71
3 218 219 177
3 154 155 153
3 40 39 236
3 33 32 28
3 39 40 36
3 136 135 133
3 133 132 131
3 206 205 158
3 60 59 57
3 98 102 100
3 54 55 52
3 64 61 79
3 164 163 166
3 70 46 53
3 96 99 98
3 185 51 45
3 34 35 33
3 161 205 110
3 87 94 96
3 148 149 150
3 43 41 38
3 45 49 44
3 201 108 97
3 163 160 167
3 99 105 104
3 176 177 173
3 65 74 68
3 14 15 16
3 223 222 224
3 90 58 92
3 234 39 42
3 144 153 146
3 181 190 185
3 137 131 129
3 197 179 198
3 210 213 188
3 72 71 68
3 235 236 234
3 162 163 164
3 180 182 176
3 208 199 179
3 218 177 176
3 13 15 14
3 20 17 18
3 179 199 198
3 92 93 95
3 186 4 182
3 123 121 125
3 173 177 219
3 19 211 25
3 187 184 189
3 147 145 148
3 160 158 161
3 151 146 152
3 58 54 51
3 23 22 21
3 106 113 115
3 61 55 59
3 45 43 189
3 3 10 216
3 48 49 51
3 44 41 43
3 185 45 189
3 56 55 63
3 60 91 59
3 158 205 161
3 143 140 142
3 81 78 79
3 168 166 167
3 19 6 211
3 196 200 193
3 163 162 160
3 58 90 60
3 69 68 71
3 193 192 196
3 201 107 108
3 54 50 51
3 36 34 38
3 182 4 183
3 128 130 88
3 47 46 70
3 75 76 77
3 184 187 186
3 34 36 35
3 129 131 128
3 2 183 4
3 8 6 19
3 176 182 183
3 149 146 150
3 47 41 46
3 207 208 170
3 76 64 78
3 96 108 99
3 29 26 187
3 76 78 77
3 124 127 126
3 8 17 16
3 21 19 25
3 41 47 221
3 146 143 144
3 73 220 47
3 145 149 148
3 36 37 35
3 97 203 201
3 61 64 63
3 132 134 81
3 0 1 2
3 164 157 162
3 31 30 28
3 234 42 233
3 93 191 95
3 140 139 116
3 54 52 50
3 232 229 228
3 61 86 79

POINT_DATA 237
COLOR_SCALARS GocadColor 4
1 0.498039 0.313726 1
1 0.498039 0.313726 1
1 0.498039 0.313726 1
1 0.498039 0.313726 1
1 0.498039 0.313726 1
1 0.498039 0.313726 1
1 0.498039 0.313726 1
1 0.498039 0.313726 1
1 0.498039 0.313726 1
1 0.498039 0.313726 1
1 0.498039 0.313726 1
1 0.498039 0.313726 1
1 0.498039 0.313726 1
1 0.498039 0.313726 1
1 0.498039 0.313726 1
1 0.498039 0.313726 1
1 0.498039 0.313726 1
1 0.498039 0.313726 1
1 0.498039 0.313726 1
1 0.498039 0.313726 1
1 0.498039 0.313726 1
1 0.498039 0.313726 1
1 0.498039 0.313726 1
1 0.498039 0.313726 1
1 0.498039 0.313726 1
1 0.498039 0.313726 1
1 0.498039 0.313726 1
1 0.498039 0.313726 1
1 0.498039 0.313726 1
1 0.498039 0.313726 1
1 0.498039 0.313726 1
1 0.498039 0.313726 1
1 0.498039 0.313726 1
1 0.498039 0.313726 1
1 0.498039 0.313726 1
1 0.498039 0.313726 1
1 0.498039 0.313726 1
1 0.498039 0.313726 1
1 0.498039 0.313726 1
1 0.498039 0.313726 1
1 0.498039 0.313726 1
1 0.498039 0.313726 1
1 0.498039 0.313726 1
1 0.498039 0.313726 1
1 0.498039 0.313726 1
1 0.498039 0.313726 1
1 0.498039 0.313726 1
1 0.498039 0.313726 1
1 0.498039 0.313726 1
1 0.498039 0.313726 1
1 0.498039 0.313726 1
1 0.498039 0.313726 1
1 0.498039 0.313726 1
1 0.498039 0.313726 1
1 0.498039 0.313726 1
1 0.498039 0.313726 1
1 0.498039 0.313726 1
1 0.498039 0.313726 1
1 0.498039 0.313726 1
1 0.498039 0.313726 1
1 0.498039 0.313726 1
1 0.498039 0.313726 1
1 0.498039 0.313726 1
1 0.498039 0.313726 1
1 0.498039 0.313726 1
1 0.498039 0.313726 1
1 0.498039 0.313726 1
1 0.498039 0.313726 1
1 0.498039 0.313726 1
1 0.498039 0.313726 1
1 0.498039 0.313726 1
1 0.498039 0.313726 1
1 0.498039 0.313726 1
1 0.498039 0.313726 1
1 0.498039 0.313726 1
1 0.498039 0.313726 1
1 0.498039 0.313726 1
1 0.498039 0.313726 1
1 0.498039 0.313726 1
1 0.498039 0.313726 1
1 0.498039 0.313726 1
1 0.498039 0.313726 1
1 0.498039 0.313726 1
1 0.498039 0.313726 1
1 0.498039 0.313726 1
1 0.498039 0.313726 1
1 0.498039 0.313726 1
1 0.498039 0.313726 1
1 0.498039 0.313726 1
1 0.498039 0.313726 1
1 0.498039 0.313726 1
1 0.498039 0.313726 1
1 0.498039 0.313726 1
1 0.498039 0.313726 1
1 0.498039 0.313726 1
1 0.498039 0.313726 1
1 0.498039 0.313726 1
1 0.498039 0.313726 1
1 0.498039 0.313726 1
1 0.498039 0.313726 1
1 0.498039 0.313726 1
1 0.498039 0.313726 1
1 0.498039 0.313726 1
1 0.498039 0.313726 1
1 0.498039 0.313726 1
1 0.498039 0.313726 1
1 0.498039 0.313726 1
1 0.498039 0.313726 1
1 0.498039 0.313726 1
1 0.498039 0.313726 1
1 0.498039 0.313726 1
1 0.498039 0.313726 1
1 0.498039 0.313726 1
1 0.498039 0.313726 1
1 0.498039 0.313726 1
1 0.498039 0.313726 1
1 0.498039 0.313726 1
1 0.498039 0.313726 1
1 0.498039 0.313726 1
1 0.498039 0.313726 1
1 0.498039 0.313726 1
1 0.498039 0.313726 1
1 0.498039 0.313726 1
1 0.498039 0.313726 1
1 0.498039 0.313726 1
1 0.498039 0.313726 1
1 0.498039 0.313726 1
1 0.498039 0.313726 1
1 0.498039 0.313726 1
1 0.498039 0.313726 1
1 0.498039 0.313726 1
1 0.498039 0.313726 1
1 0.498039 0.313726 1
1 0.498039 0.313726 1
1 0.498039 0.313726 1
1 0.498039 0.313726 1
1 0.498039 0.313726 1
1 0.498039 0.313726 1
1 0.498039 0.313726 1
1 0.498039 0.313726 1
1 0.498039 0.313726 1
1 0.498039 0.313726 1
1 0.498039 0.313726 1
1 0.498039 0.313726 1
1 0.498039 0.313726 1
1 0.498039 0.313726 1
1 0.498039 0.313726 1
1 0.498039 0.313726 1
1 0.498039 0.313726 1
1 0.498039 0.313726 1
1 0.498039 0.313726 1
1 0.498039 0.313726 1
1 0.498039 0.313726 1
1 0.498039 0.313726 1
1 0.498039 0.313726 1
1 0.498039 0.313726 1
1 0.498039 0.313726 1
1 0.498039 0.313726 1
1 0.498039 0.313726 1
1 0.498039 0.313726 1
1 0.498039 0.313726 1
1 0.498039 0.313726 1
1 0.498039 0.313726 1
1 0.498039 0.313726 1
1 0.498039 0.313726 1
1 0.498039 0.313726 1
1 0.498039 0.313726 1
1 0.498039 0.313726 1
1 0.498039 0.313726 1
1 0.498039 0.313726 1
1 0.498039 0.313726 1
1 0.498039 0.313726 1
1 0.498039 0.313726 1
1 0.498039 0.313726 1
1 0.498039 0.313726 1
1 0.498039 0.313726 1
1 0.498039 0.313726 1
1 0.498039 0.313726 1
1 0.498039 0.313726 1
1 0.498039 0.313726 1
1 0.498039 0.313726 1
1 0.498039 0.313726 1
1 0.498039 0.313726 1
1 0.498039 0.313726 1
1 0.498039 0.313726 1
1 0.498039 0.313726 1
1 0.498039 0.313726 1
1 0.498039 0.313726 1
1 0.498039 0.313726 1
1 0.498039 0.313726 1
1 0.498039 0.313726 1
1 0.498039 0.313726 1
1 0.498039 0.313726 1
1 0.498039 0.313726 1
1 0.498039 0.313726 1
1 0.498039 0.313726 1
1 0.498039 0.313726 1
1 0.498039 0.313726 1
1 0.498039 0.313726 1
1 0.498039 0.313726 1
1 0.498039 0.313726 1
1 0.498039 0.313726 1
1 0.498039 0.313726 1
1 0.498039 0.313726 1
1 0.498039 0.313726 1
1 0.498039 0.313726 1
1 0.498039 0.313726 1
1 0.498039 0.313726 1
1 0.498039 0.313726 1
1 0.498039 0.313726 1
1 0.498039 0.313726 1
1 0.498039 0.313726 1
1 0.498039 0.313726 1
1 0.498039 0.313726 1
1 0.498039 0.313726 1
1 0.498039 0.313726 1
1 0.498039 0.313726 1
1 0.498039 0.313726 1
1 0.498039 0.313726 1
1 0.498039 0.313726 1
1 0.498039 0.313726 1
1 0.498039 0.313726 1
1 0.498039 0.313726 1
1 0.498039 0.313726 1
1 0.498039 0.313726 1
1 0.498039 0.313726 1
1 0.498039 0.313726 1
1 0.498039 0.313726 1
1 0.498039 0.313726 1
1 0.498039 0.313726 1
1 0.498039 0.313726 1
1 0.498039 0.313726 1
1 0.498039 0.313726 1
1 0.498039 0.313726 1
1 0.498039 0.313726 1
1 0.498039 0.313726 1
1 0.498039 0.313726 1

