# vtk DataFile Version 3.0
Gocad TSurf to VTK
ASCII
DATASET POLYDATA
POINTS 709 float
21568500.000 4576510.000 -2702.500
21568800.000 4576550.000 -2716.250
21568650.000 4576850.000 -2757.500
21568900.000 4576990.000 -2785.000
21568400.000 4576710.000 -2730.000
21568700.000 4576165.000 -2765.000
21568500.000 4575952.500 -2782.500
21568900.000 4576377.500 -2747.500
21568975.000 4576100.000 -2800.000
21569100.000 4576590.000 -2730.000
21569200.000 4576220.000 -2800.000
21569350.000 4576390.000 -2678.750
21569300.000 4575810.000 -2950.000
21569475.000 4575950.000 -2757.500
21569050.000 4575792.500 -2912.500
21568750.000 4575980.000 -2800.000
21569175.000 4575582.500 -2947.500
21568800.000 4575775.000 -2875.000
21569500.000 4575320.000 -3050.000
21569675.000 4575470.000 -2832.500
21569325.000 4575215.000 -3022.500
21569050.000 4575355.000 -2945.000
21569475.000 4574727.500 -3022.500
21569250.000 4574785.000 -2995.000
21569700.000 4574670.000 -3050.000
21569750.000 4575307.500 -2856.250
21569550.000 4574562.500 -3038.750
21569400.000 4574455.000 -3027.500
21569775.000 4573977.500 -2997.500
21569550.000 4574065.000 -3000.000
21570000.000 4573890.000 -2995.000
21569975.000 4574657.500 -2850.000
21569875.000 4573812.500 -2981.250
21569750.000 4573735.000 -2967.500
21569625.000 4573657.500 -2953.750
21569325.000 4574152.500 -3002.500
21569500.000 4573580.000 -2940.000
21569250.000 4574347.500 -3016.250
21569100.000 4574240.000 -3005.000
21569025.000 4574842.500 -2967.500
21569025.000 4573975.000 -2891.250
21568900.000 4574152.500 -2926.250
21569325.000 4573480.000 -2842.500
21568950.000 4573710.000 -2777.500
21568700.000 4574065.000 -2847.500
21569150.000 4573380.000 -2745.000
21568875.000 4573445.000 -2663.750
21568500.000 4573977.500 -2768.750
21568975.000 4573280.000 -2647.500
21568800.000 4573180.000 -2550.000
21568300.000 4573890.000 -2690.000
21568150.000 4573587.500 -2672.500
21568000.000 4573690.000 -2682.500
21568525.000 4573055.000 -2567.500
21568000.000 4573285.000 -2655.000
21568250.000 4572930.000 -2585.000
21567850.000 4572982.500 -2637.500
21567700.000 4573490.000 -2675.000
21567975.000 4572805.000 -2602.500
21567700.000 4572680.000 -2620.000
21567400.000 4573290.000 -2667.500
21567100.000 4573090.000 -2660.000
21567275.000 4573482.500 -2708.750
21567450.000 4572597.500 -2582.500
21567000.000 4572905.000 -2612.500
21567200.000 4572515.000 -2545.000
21566875.000 4572985.000 -2640.000
21566900.000 4572720.000 -2565.000
21566500.000 4573500.000 -2715.000
21566425.000 4573292.500 -2681.250
21566825.000 4573790.000 -2750.000
21566500.000 4573510.000 -2715.000
21566825.000 4573797.500 -2750.000
21566425.000 4573300.000 -2681.250
21566275.000 4573390.000 -2698.750
21566350.000 4573090.000 -2647.500
21566350.000 4573085.000 -2647.500
21566275.000 4572880.000 -2613.750
21566650.000 4572880.000 -2620.000
21566425.000 4572775.000 -2600.000
21566800.000 4572535.000 -2517.500
21566950.000 4572432.500 -2507.500
21566700.000 4572350.000 -2470.000
21566200.000 4572670.000 -2580.000
21566275.000 4572877.500 -2613.750
21566175.000 4572515.000 -2500.000
21566075.000 4572542.500 -2486.250
21566550.000 4572275.000 -2417.500
21566150.000 4572360.000 -2420.000
21566400.000 4572200.000 -2365.000
21566125.000 4572205.000 -2340.000
21565950.000 4572415.000 -2392.500
21566250.000 4572125.000 -2312.500
21566100.000 4572050.000 -2260.000
21565825.000 4572287.500 -2298.750
21565700.000 4572160.000 -2205.000
21565675.000 4572377.500 -2316.250
21565750.000 4571885.000 -2267.500
21565450.000 4571967.500 -2226.250
21565400.000 4571720.000 -2275.000
21565300.000 4572300.000 -2150.000
21565150.000 4572072.500 -2185.000
21565375.000 4572482.500 -2275.000
21565650.000 4572595.000 -2427.500
21565075.000 4572572.500 -2297.500
21565250.000 4572725.000 -2415.000
21564900.000 4572420.000 -2180.000
21564950.000 4572642.500 -2280.000
21564850.000 4572162.500 -2207.500
21565000.000 4571845.000 -2220.000
21564725.000 4572192.500 -2245.000
21564800.000 4571905.000 -2235.000
21564300.000 4572610.000 -2315.000
21564275.000 4572335.000 -2346.250
21564500.000 4572785.000 -2381.250
21564375.000 4572875.000 -2350.000
21564700.000 4572960.000 -2447.500
21563775.000 4573062.500 -2443.750
21564050.000 4573265.000 -2447.500
21563500.000 4572860.000 -2440.000
21563650.000 4573137.500 -2406.250
21563525.000 4572562.500 -2467.500
21563275.000 4572617.500 -2478.750
21564125.000 4572375.000 -2373.750
21563550.000 4572265.000 -2495.000
21564250.000 4572060.000 -2377.500
21564550.000 4571965.000 -2310.000
21563950.000 4572140.000 -2432.500
21564225.000 4571785.000 -2408.750
21564375.000 4571737.500 -2375.000
21563775.000 4571905.000 -2491.250
21563575.000 4571967.500 -2522.500
21564200.000 4571510.000 -2440.000
21563600.000 4571670.000 -2550.000
21563775.000 4571405.000 -2308.750
21563325.000 4571525.000 -2391.250
21564150.000 4571315.000 -2196.250
21563600.000 4571240.000 -2102.500
21564700.000 4571390.000 -2290.000
21564750.000 4571647.500 -2262.500
21564850.000 4571617.500 -2255.000
21564950.000 4571582.500 -2268.750
21565200.000 4571775.000 -2247.500
21565050.000 4571555.000 -2282.500
21563350.000 4571300.000 -2177.500
21563050.000 4571165.000 -2008.750
21563050.000 4571380.000 -2232.500
21562925.000 4571195.000 -2046.250
21562575.000 4571690.000 -2425.000
21562550.000 4571490.000 -2255.000
21562600.000 4571890.000 -2595.000
21562450.000 4571742.500 -2460.000
21562300.000 4571595.000 -2325.000
21561775.000 4571915.000 -2490.000
21561850.000 4571710.000 -2345.000
21561700.000 4572120.000 -2635.000
21561650.000 4571982.500 -2521.250
21562550.000 4572212.500 -2570.000
21562650.000 4572177.500 -2570.000
21561875.000 4572385.000 -2600.000
21562500.000 4572535.000 -2545.000
21561750.000 4572420.000 -2580.000
21561800.000 4572720.000 -2525.000
21561150.000 4572570.000 -2550.000
21561400.000 4572820.000 -2505.000
21560900.000 4572320.000 -2595.000
21561525.000 4572032.500 -2535.000
21560925.000 4572182.500 -2505.000
21561600.000 4571845.000 -2407.500
21561350.000 4571945.000 -2435.000
21561550.000 4571707.500 -2293.750
21561175.000 4571857.500 -2335.000
21560950.000 4572045.000 -2415.000
21561500.000 4571570.000 -2180.000
21561925.000 4571505.000 -2200.000
21561000.000 4571770.000 -2235.000
21560975.000 4571907.500 -2325.000
21561275.000 4571362.500 -2110.000
21560900.000 4571512.500 -2151.250
21561650.000 4571160.000 -2016.250
21561300.000 4571020.000 -1977.500
21562000.000 4571300.000 -2055.000
21562025.000 4571002.500 -1911.250
21562150.000 4571447.500 -2190.000
21562525.000 4571290.000 -2085.000
21562775.000 4571235.000 -2073.750
21562500.000 4571090.000 -1915.000
21561550.000 4570915.000 -1907.500
21561075.000 4570827.500 -1903.750
21560950.000 4570880.000 -1938.750
21560600.000 4570740.000 -1900.000
21561050.000 4571155.000 -2040.000
21560825.000 4570947.500 -1970.000
21560800.000 4571255.000 -2067.500
21560700.000 4571385.000 -2095.000
21560850.000 4571577.500 -2165.000
21560550.000 4571192.500 -2025.000
21560700.000 4570997.500 -1983.750
21560475.000 4571417.500 -2066.250
21560650.000 4571535.000 -2122.500
21560300.000 4571300.000 -2010.000
21560400.000 4571000.000 -1955.000
21560350.000 4571480.000 -2072.500
21560400.000 4571660.000 -2135.000
21560100.000 4571520.000 -2010.000
21560200.000 4571645.000 -2072.500
21560025.000 4571147.500 -1952.500
21559875.000 4571312.500 -1952.500
21560100.000 4570922.500 -1911.250
21559750.000 4570995.000 -1895.000
21560100.000 4570892.500 -1925.000
21559800.000 4570845.000 -1867.500
21560100.000 4570870.000 -1921.250
21559800.000 4570785.000 -1895.000
21560250.000 4570675.000 -1880.000
21559900.000 4570610.000 -1860.000
21559800.000 4570740.000 -1887.500
21559550.000 4570545.000 -1840.000
21559500.000 4570677.500 -1865.000
21559500.000 4570610.000 -1853.750
21559500.000 4570767.500 -1823.750
21559200.000 4570690.000 -1780.000
21559200.000 4570570.000 -1835.000
21559475.000 4570842.500 -1837.500
21559425.000 4570897.500 -1837.500
21559650.000 4571105.000 -1895.000
21559200.000 4570480.000 -1820.000
21560300.000 4571770.000 -2135.000
21560450.000 4571840.000 -2197.500
21560400.000 4571895.000 -2197.500
21560500.000 4572020.000 -2260.000
21560825.000 4571652.500 -2178.750
21560600.000 4572095.000 -2343.750
21560700.000 4572170.000 -2427.500
21560800.000 4572245.000 -2511.250
21561650.000 4573070.000 -2460.000
21561850.000 4573020.000 -2470.000
21562050.000 4572650.000 -2565.000
21561900.000 4573320.000 -2415.000
21562225.000 4572915.000 -2530.000
21562400.000 4573180.000 -2495.000
21562450.000 4572857.500 -2520.000
21562150.000 4573657.500 -2438.750
21562525.000 4573552.500 -2498.750
21562575.000 4573517.500 -2481.250
21562400.000 4573995.000 -2462.500
21562650.000 4573925.000 -2502.500
21562750.000 4573855.000 -2467.500
21562650.000 4574332.500 -2486.250
21562775.000 4574297.500 -2506.250
21562925.000 4574192.500 -2453.750
21562900.000 4574670.000 -2510.000
21563100.000 4574530.000 -2440.000
21563075.000 4574870.000 -2447.500
21563225.000 4574765.000 -2395.000
21563300.000 4574702.500 -2377.500
21563250.000 4575070.000 -2385.000
21563350.000 4575000.000 -2350.000
21563425.000 4575270.000 -2322.500
21563475.000 4575235.000 -2305.000
21563500.000 4574875.000 -2315.000
21563600.000 4575470.000 -2260.000
21563700.000 4575047.500 -2252.500
21563900.000 4575220.000 -2190.000
21563775.000 4575005.000 -2218.750
21564200.000 4575925.000 -2246.250
21564425.000 4575737.500 -2193.750
21564100.000 4576070.000 -2253.750
21564800.000 4576380.000 -2232.500
21564600.000 4576670.000 -2247.500
21564950.000 4576255.000 -2197.500
21564725.000 4575542.500 -2246.250
21565400.000 4576835.000 -2218.750
21565475.000 4576772.500 -2201.250
21565100.000 4577270.000 -2241.250
21566000.000 4577290.000 -2205.000
21565600.000 4577870.000 -2235.000
21565950.000 4577970.000 -2296.250
21566250.000 4577535.000 -2273.750
21565875.000 4578095.000 -2338.750
21565800.000 4578242.500 -2376.250
21566300.000 4578070.000 -2357.500
21566150.000 4578320.000 -2442.500
[...]
POINT_DATA 709
COLOR_SCALARS GocadColor 4
1 0.74902 0.795026 1
1 0.74902 0.795026 1
1 0.74902 0.795026 1
1 0.74902 0.795026 1
1 0.74902 0.795026 1
1 0.74902 0.795026 1
1 0.74902 0.795026 1
1 0.74902 0.795026 1
1 0.74902 0.795026 1
1 0.74902 0.795026 1
1 0.74902 0.795026 1
1 0.74902 0.795026 1
1 0.74902 0.795026 1
1 0.74902 0.795026 1
1 0.74902 0.795026 1
1 0.74902 0.795026 1
1 0.74902 0.795026 1
1 0.74902 0.795026 1
1 0.74902 0.795026 1
1 0.74902 0.795026 1
1 0.74902 0.795026 1
1 0.74902 0.795026 1
1 0.74902 0.795026 1
1 0.74902 0.795026 1
1 0.74902 0.795026 1
1 0.74902 0.795026 1
1 0.74902 0.795026 1
1 0.74902 0.795026 1
1 0.74902 0.795026 1
1 0.74902 0.795026 1
1 0.74902 0.795026 1
1 0.74902 0.795026 1
1 0.74902 0.795026 1
1 0.74902 0.795026 1
1 0.74902 0.795026 1
1 0.74902 0.795026 1
1 0.74902 0.795026 1
1 0.74902 0.795026 1
1 0.74902 0.795026 1
1 0.74902 0.795026 1
1 0.74902 0.795026 1
1 0.74902 0.795026 1
1 0.74902 0.795026 1
1 0.74902 0.795026 1
1 0.74902 0.795026 1
1 0.74902 0.795026 1
1 0.74902 0.795026 1
1 0.74902 0.795026 1
1 0.74902 0.795026 1
1 0.74902 0.795026 1
1 0.74902 0.795026 1
1 0.74902 0.795026 1
1 0.74902 0.795026 1
1 0.74902 0.795026 1
1 0.74902 0.795026 1
1 0.74902 0.795026 1
1 0.74902 0.795026 1
1 0.74902 0.795026 1
1 0.74902 0.795026 1
1 0.74902 0.795026 1
1 0.74902 0.795026 1
1 0.74902 0.795026 1
1 0.74902 0.795026 1
1 0.74902 0.795026 1
1 0.74902 0.795026 1
1 0.74902 0.795026 1
1 0.74902 0.795026 1
1 0.74902 0.795026 1
1 0.74902 0.795026 1
1 0.74902 0.795026 1
1 0.74902 0.795026 1
1 0.74902 0.795026 1
1 0.74902 0.795026 1
1 0.74902 0.795026 1
1 0.74902 0.795026 1
1 0.74902 0.795026 1
1 0.74902 0.795026 1
1 0.74902 0.795026 1
1 0.74902 0.795026 1
1 0.74902 0.795026 1
1 0.74902 0.795026 1
1 0.74902 0.795026 1
1 0.74902 0.795026 1
1 0.74902 0.795026 1
1 0.74902 0.795026 1
1 0.74902 0.795026 1
1 0.74902 0.795026 1
1 0.74902 0.795026 1
1 0.74902 0.795026 1
1 0.74902 0.795026 1
1 0.74902 0.795026 1
1 0.74902 0.795026 1
1 0.74902 0.795026 1
1 0.74902 0.795026 1
1 0.74902 0.795026 1
1 0.74902 0.795026 1
1 0.74902 0.795026 1
1 0.74902 0.795026 1
1 0.74902 0.795026 1
1 0.74902 0.795026 1
1 0.74902 0.795026 1
1 0.74902 0.795026 1
1 0.74902 0.795026 1
1 0.74902 0.795026 1
1 0.74902 0.795026 1
1 0.74902 0.795026 1
1 0.74902 0.795026 1
1 0.74902 0.795026 1
1 0.74902 0.795026 1
1 0.74902 0.795026 1
1 0.74902 0.795026 1
1 0.74902 0.795026 1
1 0.74902 0.795026 1
1 0.74902 0.795026 1
1 0.74902 0.795026 1
1 0.74902 0.795026 1
1 0.74902 0.795026 1
1 0.74902 0.795026 1
1 0.74902 0.795026 1
1 0.74902 0.795026 1
1 0.74902 0.795026 1
1 0.74902 0.795026 1
1 0.74902 0.795026 1
1 0.74902 0.795026 1
1 0.74902 0.795026 1
1 0.74902 0.795026 1
1 0.74902 0.795026 1
1 0.74902 0.795026 1
1 0.74902 0.795026 1
1 0.74902 0.795026 1
1 0.74902 0.795026 1
1 0.74902 0.795026 1
1 0.74902 0.795026 1
1 0.74902 0.795026 1
1 0.74902 0.795026 1
1 0.74902 0.795026 1
1 0.74902 0.795026 1
1 0.74902 0.795026 1
1 0.74902 0.795026 1
1 0.74902 0.795026 1
1 0.74902 0.795026 1
1 0.74902 0.795026 1
1 0.74902 0.795026 1
1 0.74902 0.795026 1
1 0.74902 0.795026 1
1 0.74902 0.795026 1
1 0.74902 0.795026 1
1 0.74902 0.795026 1
1 0.74902 0.795026 1
1 0.74902 0.795026 1
1 0.74902 0.795026 1
1 0.74902 0.795026 1
1 0.74902 0.795026 1
1 0.74902 0.795026 1
1 0.74902 0.795026 1
1 0.74902 0.795026 1
1 0.74902 0.795026 1
1 0.74902 0.795026 1
1 0.74902 0.795026 1
1 0.74902 0.795026 1
1 0.74902 0.795026 1
1 0.74902 0.795026 1
1 0.74902 0.795026 1
1 0.74902 0.795026 1
1 0.74902 0.795026 1
1 0.74902 0.795026 1
1 0.74902 0.795026 1
1 0.74902 0.795026 1
1 0.74902 0.795026 1
1 0.74902 0.795026 1
1 0.74902 0.795026 1
1 0.74902 0.795026 1
1 0.74902 0.795026 1
1 0.74902 0.795026 1
1 0.74902 0.795026 1
1 0.74902 0.795026 1
1 0.74902 0.795026 1
1 0.74902 0.795026 1
1 0.74902 0.795026 1
1 0.74902 0.795026 1
1 0.74902 0.795026 1
1 0.74902 0.795026 1
1 0.74902 0.795026 1
1 0.74902 0.795026 1
1 0.74902 0.795026 1
1 0.74902 0.795026 1
1 0.74902 0.795026 1
1 0.74902 0.795026 1
1 0.74902 0.795026 1
1 0.74902 0.795026 1
1 0.74902 0.795026 1
1 0.74902 0.795026 1
1 0.74902 0.795026 1
1 0.74902 0.795026 1
1 0.74902 0.795026 1
1 0.74902 0.795026 1
1 0.74902 0.795026 1
1 0.74902 0.795026 1
1 0.74902 0.795026 1
1 0.74902 0.795026 1
1 0.74902 0.795026 1
1 0.74902 0.795026 1
1 0.74902 0.795026 1
1 0.74902 0.795026 1
1 0.74902 0.795026 1
1 0.74902 0.795026 1
1 0.74902 0.795026 1
1 0.74902 0.795026 1
1 0.74902 0.795026 1
1 0.74902 0.795026 1
1 0.74902 0.795026 1
1 0.74902 0.795026 1
1 0.74902 0.795026 1
1 0.74902 0.795026 1
1 0.74902 0.795026 1
1 0.74902 0.795026 1
1 0.74902 0.795026 1
1 0.74902 0.795026 1
1 0.74902 0.795026 1
1 0.74902 0.795026 1
1 0.74902 0.795026 1
1 0.74902 0.795026 1
1 0.74902 0.795026 1
1 0.74902 0.795026 1
1 0.74902 0.795026 1
1 0.74902 0.795026 1
1 0.74902 0.795026 1
1 0.74902 0.795026 1
1 0.74902 0.795026 1
1 0.74902 0.795026 1
1 0.74902 0.795026 1
1 0.74902 0.795026 1
1 0.74902 0.795026 1
1 0.74902 0.795026 1
1 0.74902 0.795026 1
1 0.74902 0.795026 1
1 0.74902 0.795026 1
1 0.74902 0.795026 1
1 0.74902 0.795026 1
1 0.74902 0.795026 1
1 0.74902 0.795026 1
1 0.74902 0.795026 1
1 0.74902 0.795026 1
1 0.74902 0.795026 1
1 0.74902 0.795026 1
1 0.74902 0.795026 1
1 0.74902 0.795026 1
1 0.74902 0.795026 1
1 0.74902 0.795026 1
1 0.74902 0.795026 1
1 0.74902 0.795026 1
1 0.74902 0.795026 1
1 0.74902 0.795026 1
1 0.74902 0.795026 1
1 0.74902 0.795026 1
1 0.74902 0.795026 1
1 0.74902 0.795026 1
1 0.74902 0.795026 1
1 0.74902 0.795026 1
1 0.74902 0.795026 1
1 0.74902 0.795026 1
1 0.74902 0.795026 1
1 0.74902 0.795026 1
1 0.74902 0.795026 1
1 0.74902 0.795026 1
1 0.74902 0.795026 1
1 0.74902 0.795026 1
1 0.74902 0.795026 1
1 0.74902 0.795026 1
1 0.74902 0.795026 1
1 0.74902 0.795026 1
1 0.74902 0.795026 1
1 0.74902 0.795026 1
1 0.74902 0.795026 1
1 0.74902 0.795026 1
1 0.74902 0.795026 1
1 0.74902 0.795026 1
1 0.74902 0.795026 1
1 0.74902 0.795026 1
1 0.74902 0.795026 1
1 0.74902 0.795026 1
1 0.74902 0.795026 1
1 0.74902 0.795026 1
1 0.74902 0.795026 1
1 0.74902 0.795026 1
1 0.74902 0.795026 1
1 0.74902 0.795026 1
1 0.74902 0.795026 1
1 0.74902 0.795026 1
1 0.74902 0.795026 1
1 0.74902 0.795026 1
1 0.74902 0.795026 1
1 0.74902 0.795026 1
1 0.74902 0.795026 1
1 0.74902 0.795026 1
1 0.74902 0.795026 1
1 0.74902 0.795026 1
1 0.74902 0.795026 1
1 0.74902 0.795026 1
1 0.74902 0.795026 1
1 0.74902 0.795026 1
1 0.74902 0.795026 1
1 0.74902 0.795026 1
1 0.74902 0.795026 1
1 0.74902 0.795026 1
1 0.74902 0.795026 1
1 0.74902 0.795026 1
1 0.74902 0.795026 1
1 0.74902 0.795026 1
1 0.74902 0.795026 1
1 0.74902 0.795026 1
1 0.74902 0.795026 1
1 0.74902 0.795026 1
1 0.74902 0.795026 1
1 0.74902 0.795026 1
1 0.74902 0.795026 1
1 0.74902 0.795026 1
1 0.74902 0.795026 1
1 0.74902 0.795026 1
1 0.74902 0.795026 1
1 0.74902 0.795026 1
1 0.74902 0.795026 1
1 0.74902 0.795026 1
1 0.74902 0.795026 1
1 0.74902 0.795026 1
1 0.74902 0.795026 1
1 0.74902 0.795026 1
1 0.74902 0.795026 1
1 0.74902 0.795026 1
1 0.74902 0.795026 1
1 0.74902 0.795026 1
1 0.74902 0.795026 1
1 0.74902 0.795026 1
1 0.74902 0.795026 1
1 0.74902 0.795026 1
1 0.74902 0.795026 1
1 0.74902 0.795026 1
1 0.74902 0.795026 1
1 0.74902 0.795026 1
1 0.74902 0.795026 1
1 0.74902 0.795026 1
1 0.74902 0.795026 1
1 0.74902 0.795026 1
1 0.74902 0.795026 1
1 0.74902 0.795026 1
1 0.74902 0.795026 1
1 0.74902 0.795026 1
1 0.74902 0.795026 1
1 0.74902 0.795026 1
1 0.74902 0.795026 1
1 0.74902 0.795026 1
1 0.74902 0.795026 1
1 0.74902 0.795026 1
1 0.74902 0.795026 1
1 0.74902 0.795026 1
1 0.74902 0.795026 1
1 0.74902 0.795026 1
1 0.74902 0.795026 1
1 0.74902 0.795026 1
1 0.74902 0.795026 1
1 0.74902 0.795026 1
1 0.74902 0.795026 1
1 0.74902 0.795026 1
1 0.74902 0.795026 1
1 0.74902 0.795026 1
1 0.74902 0.795026 1
1 0.74902 0.795026 1
1 0.74902 0.795026 1
1 0.74902 0.795026 1
1 0.74902 0.795026 1
1 0.74902 0.795026 1
1 0.74902 0.795026 1
1 0.74902 0.795026 1
1 0.74902 0.795026 1
1 0.74902 0.795026 1
1 0.74902 0.795026 1
1 0.74902 0.795026 1
1 0.74902 0.795026 1
1 0.74902 0.795026 1
1 0.74902 0.795026 1
1 0.74902 0.795026 1
1 0.74902 0.795026 1
1 0.74902 0.795026 1
1 0.74902 0.795026 1
1 0.74902 0.795026 1
1 0.74902 0.795026 1
1 0.74902 0.795026 1
1 0.74902 0.795026 1
1 0.74902 0.795026 1
1 0.74902 0.795026 1
1 0.74902 0.795026 1
1 0.74902 0.795026 1
1 0.74902 0.795026 1
1 0.74902 0.795026 1
1 0.74902 0.795026 1
1 0.74902 0.795026 1
1 0.74902 0.795026 1
1 0.74902 0.795026 1
1 0.74902 0.795026 1
1 0.74902 0.795026 1
1 0.74902 0.795026 1
1 0.74902 0.795026 1
1 0.74902 0.795026 1
1 0.74902 0.795026 1
1 0.74902 0.795026 1
1 0.74902 0.795026 1
1 0.74902 0.795026 1
1 0.74902 0.795026 1
1 0.74902 0.795026 1
1 0.74902 0.795026 1
1 0.74902 0.795026 1
1 0.74902 0.795026 1
1 0.74902 0.795026 1
1 0.74902 0.795026 1
1 0.74902 0.795026 1
1 0.74902 0.795026 1
1 0.74902 0.795026 1
1 0.74902 0.795026 1
1 0.74902 0.795026 1
1 0.74902 0.795026 1
1 0.74902 0.795026 1
1 0.74902 0.795026 1
1 0.74902 0.795026 1
1 0.74902 0.795026 1
1 0.74902 0.795026 1
1 0.74902 0.795026 1
1 0.74902 0.795026 1
1 0.74902 0.795026 1
1 0.74902 0.795026 1
1 0.74902 0.795026 1
1 0.74902 0.795026 1
1 0.74902 0.795026 1
1 0.74902 0.795026 1
1 0.74902 0.795026 1
1 0.74902 0.795026 1
1 0.74902 0.795026 1
1 0.74902 0.795026 1
1 0.74902 0.795026 1
1 0.74902 0.795026 1
1 0.74902 0.795026 1
1 0.74902 0.795026 1
1 0.74902 0.795026 1
1 0.74902 0.795026 1
1 0.74902 0.795026 1
1 0.74902 0.795026 1
1 0.74902 0.795026 1
1 0.74902 0.795026 1
1 0.74902 0.795026 1
1 0.74902 0.795026 1
1 0.74902 0.795026 1
1 0.74902 0.795026 1
1 0.74902 0.795026 1
1 0.74902 0.795026 1
1 0.74902 0.795026 1
1 0.74902 0.795026 1
1 0.74902 0.795026 1
1 0.74902 0.795026 1
1 0.74902 0.795026 1
1 0.74902 0.795026 1
1 0.74902 0.795026 1
1 0.74902 0.795026 1
1 0.74902 0.795026 1
1 0.74902 0.795026 1
1 0.74902 0.795026 1
1 0.74902 0.795026 1
1 0.74902 0.795026 1
1 0.74902 0.795026 1
1 0.74902 0.795026 1
1 0.74902 0.795026 1
1 0.74902 0.795026 1
1 0.74902 0.795026 1
1 0.74902 0.795026 1
1 0.74902 0.795026 1
1 0.74902 0.795026 1
1 0.74902 0.795026 1
1 0.74902 0.795026 1
1 0.74902 0.795026 1
1 0.74902 0.795026 1
1 0.74902 0.795026 1
1 0.74902 0.795026 1
1 0.74902 0.795026 1
1 0.74902 0.795026 1
1 0.74902 0.795026 1
1 0.74902 0.795026 1
1 0.74902 0.795026 1
1 0.74902 0.795026 1
1 0.74902 0.795026 1
1 0.74902 0.795026 1
1 0.74902 0.795026 1
1 0.74902 0.795026 1
1 0.74902 0.795026 1
1 0.74902 0.795026 1
1 0.74902 0.795026 1
1 0.74902 0.795026 1
1 0.74902 0.795026 1
1 0.74902 0.795026 1
1 0.74902 0.795026 1
1 0.74902 0.795026 1
1 0.74902 0.795026 1
1 0.74902 0.795026 1
1 0.74902 0.795026 1
1 0.74902 0.795026 1
1 0.74902 0.795026 1
1 0.74902 0.795026 1
1 0.74902 0.795026 1
1 0.74902 0.795026 1
1 0.74902 0.795026 1
1 0.74902 0.795026 1
1 0.74902 0.795026 1
1 0.74902 0.795026 1
1 0.74902 0.795026 1
1 0.74902 0.795026 1
1 0.74902 0.795026 1
1 0.74902 0.795026 1
1 0.74902 0.795026 1
1 0.74902 0.795026 1
1 0.74902 0.795026 1
1 0.74902 0.795026 1
1 0.74902 0.795026 1
1 0.74902 0.795026 1
1 0.74902 0.795026 1
1 0.74902 0.795026 1
1 0.74902 0.795026 1
1 0.74902 0.795026 1
1 0.74902 0.795026 1
1 0.74902 0.795026 1
1 0.74902 0.795026 1
1 0.74902 0.795026 1
1 0.74902 0.795026 1
1 0.74902 0.795026 1
1 0.74902 0.795026 1
1 0.74902 0.795026 1
1 0.74902 0.795026 1
1 0.74902 0.795026 1
1 0.74902 0.795026 1
1 0.74902 0.795026 1
1 0.74902 0.795026 1
1 0.74902 0.795026 1
1 0.74902 0.795026 1
1 0.74902 0.795026 1
1 0.74902 0.795026 1
1 0.74902 0.795026 1
1 0.74902 0.795026 1
1 0.74902 0.795026 1
1 0.74902 0.795026 1
1 0.74902 0.795026 1
1 0.74902 0.795026 1
1 0.74902 0.795026 1
1 0.74902 0.795026 1
1 0.74902 0.795026 1
1 0.74902 0.795026 1
1 0.74902 0.795026 1
1 0.74902 0.795026 1
1 0.74902 0.795026 1
1 0.74902 0.795026 1
1 0.74902 0.795026 1
1 0.74902 0.795026 1
1 0.74902 0.795026 1
1 0.74902 0.795026 1
1 0.74902 0.795026 1
1 0.74902 0.795026 1
1 0.74902 0.795026 1
1 0.74902 0.795026 1
1 0.74902 0.795026 1
1 0.74902 0.795026 1
1 0.74902 0.795026 1
1 0.74902 0.795026 1
1 0.74902 0.795026 1
1 0.74902 0.795026 1
1 0.74902 0.795026 1
1 0.74902 0.795026 1
1 0.74902 0.795026 1
1 0.74902 0.795026 1
1 0.74902 0.795026 1
1 0.74902 0.795026 1
1 0.74902 0.795026 1
1 0.74902 0.795026 1
1 0.74902 0.795026 1
1 0.74902 0.795026 1
1 0.74902 0.795026 1
1 0.74902 0.795026 1
1 0.74902 0.795026 1
1 0.74902 0.795026 1
1 0.74902 0.795026 1
1 0.74902 0.795026 1
1 0.74902 0.795026 1
1 0.74902 0.795026 1
1 0.74902 0.795026 1
1 0.74902 0.795026 1
1 0.74902 0.795026 1
1 0.74902 0.795026 1
1 0.74902 0.795026 1
1 0.74902 0.795026 1
1 0.74902 0.795026 1
1 0.74902 0.795026 1
1 0.74902 0.795026 1
1 0.74902 0.795026 1
1 0.74902 0.795026 1
1 0.74902 0.795026 1
1 0.74902 0.795026 1
1 0.74902 0.795026 1
1 0.74902 0.795026 1
1 0.74902 0.795026 1
1 0.74902 0.795026 1
1 0.74902 0.795026 1
1 0.74902 0.795026 1
1 0.74902 0.795026 1
1 0.74902 0.795026 1
1 0.74902 0.795026 1
1 0.74902 0.795026 1
1 0.74902 0.795026 1
1 0.74902 0.795026 1
1 0.74902 0.795026 1
1 0.74902 0.795026 1
1 0.74902 0.795026 1
1 0.74902 0.795026 1
1 0.74902 0.795026 1
1 0.74902 0.795026 1
1 0.74902 0.795026 1
1 0.74902 0.795026 1
1 0.74902 0.795026 1
1 0.74902 0.795026 1
1 0.74902 0.795026 1
1 0.74902 0.795026 1
1 0.74902 0.795026 1
1 0.74902 0.795026 1
1 0.74902 0.795026 1
1 0.74902 0.795026 1
1 0.74902 0.795026 1
1 0.74902 0.795026 1
1 0.74902 0.795026 1
1 0.74902 0.795026 1
1 0.74902 0.795026 1
1 0.74902 0.795026 1
1 0.74902 0.795026 1
1 0.74902 0.795026 1
1 0.74902 0.795026 1
1 0.74902 0.795026 1
1 0.74902 0.795026 1
1 0.74902 0.795026 1
1 0.74902 0.795026 1
1 0.74902 0.795026 1
1 0.74902 0.795026 1
1 0.74902 0.795026 1
1 0.74902 0.795026 1
1 0.74902 0.795026 1
1 0.74902 0.795026 1
1 0.74902 0.795026 1
1 0.74902 0.795026 1
1 0.74902 0.795026 1
1 0.74902 0.795026 1
1 0.74902 0.795026 1
1 0.74902 0.795026 1
1 0.74902 0.795026 1
1 0.74902 0.795026 1
1 0.74902 0.795026 1
1 0.74902 0.795026 1
1 0.74902 0.795026 1
1 0.74902 0.795026 1
1 0.74902 0.795026 1
1 0.74902 0.795026 1
1 0.74902 0.795026 1
1 0.74902 0.795026 1
1 0.74902 0.795026 1
1 0.74902 0.795026 1
1 0.74902 0.795026 1
1 0.74902 0.795026 1
1 0.74902 0.795026 1
1 0.74902 0.795026 1
1 0.74902 0.795026 1
1 0.74902 0.795026 1
1 0.74902 0.795026 1
1 0.74902 0.795026 1
1 0.74902 0.795026 1
1 0.74902 0.795026 1
1 0.74902 0.795026 1
1 0.74902 0.795026 1
1 0.74902 0.795026 1
1 0.74902 0.795026 1
1 0.74902 0.795026 1
1 0.74902 0.795026 1
1 0.74902 0.795026 1
1 0.74902 0.795026 1
1 0.74902 0.795026 1
1 0.74902 0.795026 1
1 0.74902 0.795026 1
1 0.74902 0.795026 1
1 0.74902 0.795026 1
1 0.74902 0.795026 1
1 0.74902 0.795026 1
1 0.74902 0.795026 1
1 0.74902 0.795026 1
1 0.74902 0.795026 1
1 0.74902 0.795026 1
1 0.74902 0.795026 1
1 0.74902 0.795026 1
1 0.74902 0.795026 1
1 0.74902 0.795026 1
1 0.74902 0.795026 1
1 0.74902 0.795026 1
1 0.74902 0.795026 1
1 0.74902 0.795026 1
1 0.74902 0.795026 1
1 0.74902 0.795026 1
1 0.74902 0.795026 1
1 0.74902 0.795026 1
1 0.74902 0.795026 1
1 0.74902 0.795026 1
1 0.74902 0.795026 1

