# vtk DataFile Version 3.0
Gocad TSurf to VTK
ASCII
DATASET POLYDATA
POINTS 626 float
21573950.000 4586010.000 -102.500
21573975.000 4585880.000 -76.250
21574050.000 4585895.000 -37.500
21574000.000 4585750.000 -50.000
21574100.000 4586040.000 -25.000
21573900.000 4585870.000 -115.000
21573800.000 4585990.000 -180.000
21573600.000 4585802.500 -250.000
21573925.000 4586140.000 -128.750
21573700.000 4586110.000 -245.000
21573600.000 4585945.000 -270.000
21573900.000 4586270.000 -155.000
21574150.000 4586185.000 -12.500
21573600.000 4586230.000 -310.000
21573600.000 4586087.500 -290.000
21573850.000 4586422.500 -193.750
21573925.000 4586427.500 -148.750
21573625.000 4586392.500 -310.000
21573800.000 4586575.000 -232.500
21573550.000 4586387.500 -328.750
21573650.000 4586555.000 -310.000
21573175.000 4586327.500 -482.500
21573250.000 4586505.000 -450.000
21573100.000 4586150.000 -515.000
21573075.000 4586317.500 -541.250
21573225.000 4586027.500 -443.750
21573125.000 4586002.500 -508.750
21573350.000 4585905.000 -372.500
21573150.000 4585855.000 -502.500
21573475.000 4585782.500 -301.250
21573175.000 4585707.500 -496.250
21573600.000 4585660.000 -230.000
21573200.000 4585560.000 -490.000
21573375.000 4585297.500 -363.750
21573200.000 4585230.000 -396.250
21573675.000 4585372.500 -168.750
21573550.000 4585035.000 -237.500
21573750.000 4585405.000 -150.000
21573750.000 4585085.000 -107.500
21574050.000 4585472.500 -15.000
21573900.000 4585150.000 -70.000
21574275.000 4585517.500 101.250
21574250.000 4585225.000 97.500
21574300.000 4585810.000 105.000
21574475.000 4585595.000 113.750
21574275.000 4585940.000 78.750
21574575.000 4586000.000 105.000
21574250.000 4586070.000 52.500
21574450.000 4586110.000 70.000
21574225.000 4586200.000 26.250
21574325.000 4586220.000 35.000
21574200.000 4586330.000 0.000
21574150.000 4586472.500 -32.500
21574225.000 4586480.000 6.250
21573950.000 4586585.000 -142.500
21574100.000 4586615.000 -65.000
21573975.000 4586742.500 -136.250
21573750.000 4586727.500 -271.250
21574000.000 4586900.000 -130.000
21574050.000 4586757.500 -97.500
21573700.000 4586880.000 -310.000
21573675.000 4586717.500 -310.000
21573900.000 4587082.500 -107.500
21573950.000 4587085.000 -87.500
21573675.000 4587067.500 -242.500
21573800.000 4587265.000 -85.000
21573450.000 4587052.500 -298.750
21573500.000 4587245.000 -212.500
21573400.000 4586860.000 -385.000
21573150.000 4587022.500 -475.000
21573450.000 4586702.500 -366.250
21573325.000 4586682.500 -417.500
21573500.000 4586545.000 -347.500
21573025.000 4586652.500 -593.750
21573050.000 4586485.000 -567.500
21573000.000 4586820.000 -620.000
21572875.000 4586627.500 -655.000
21572750.000 4586435.000 -690.000
21572625.000 4586242.500 -725.000
21572500.000 4586050.000 -760.000
21573025.000 4585982.500 -543.750
21572575.000 4585907.500 -727.500
21572950.000 4585815.000 -572.500
21572875.000 4585647.500 -601.250
21572650.000 4585765.000 -695.000
21572800.000 4585480.000 -630.000
21572725.000 4585622.500 -662.500
21572900.000 4585170.000 -501.250
21572750.000 4585107.500 -523.750
21573000.000 4584860.000 -372.500
21573200.000 4584900.000 -302.500
21573100.000 4584550.000 -243.750
21573725.000 4584772.500 -111.250
21573200.000 4584570.000 -208.750
21573900.000 4584510.000 15.000
21573825.000 4584797.500 -46.250
21573200.000 4584240.000 -115.000
21573850.000 4584322.500 -1.250
21573325.000 4584120.000 -98.750
21573950.000 4584355.000 21.250
21574000.000 4584200.000 27.500
21574175.000 4584452.500 77.500
21574150.000 4584265.000 65.000
21574200.000 4584640.000 90.000
21574350.000 4584507.500 86.250
21574050.000 4584895.000 10.000
21574150.000 4584917.500 55.000
21574100.000 4585195.000 20.000
21574225.000 4584932.500 93.750
21574825.000 4585165.000 131.250
21574650.000 4585380.000 122.500
21575000.000 4584950.000 140.000
21574925.000 4585185.000 140.000
21574950.000 4584740.000 123.750
21575025.000 4584770.000 137.500
21575050.000 4584590.000 135.000
21575100.000 4584787.500 150.000
21575192.516 4584908.922 187.005
21575208.656 4584823.719 182.595
21575173.766 4585007.922 192.128
21575141.422 4585242.273 203.641
21575139.750 4585254.461 204.239
21575140.156 4585256.719 204.545
21575142.609 4585270.344 206.392
21575000.000 4585470.000 185.000
21574850.000 4585420.000 140.000
21575217.969 4585522.313 237.311
21575242.313 4585603.750 247.305
21575225.000 4585770.000 252.500
21574850.000 4585680.000 162.500
21575200.000 4586010.000 260.000
21574700.000 4585890.000 140.000
21574775.000 4585655.000 140.000
21575100.000 4586112.500 236.250
21575200.000 4586130.000 256.250
21574725.000 4586022.500 146.250
21575000.000 4586215.000 212.500
21574750.000 4586155.000 152.500
21574775.000 4586287.500 158.750
21574900.000 4586317.500 188.750
21574800.000 4586420.000 165.000
21574675.000 4586547.500 130.000
21574750.000 4586552.500 146.250
21574550.000 4586675.000 95.000
21574700.000 4586685.000 127.500
21574250.000 4586630.000 12.500
21574425.000 4586802.500 60.000
21574275.000 4586780.000 18.750
21574300.000 4586930.000 25.000
21574000.000 4587087.500 -68.750
21574225.000 4587110.000 47.500
21573900.000 4587270.000 -45.000
21574000.000 4587275.000 -7.500
21573850.000 4587455.000 -2.500
21573700.000 4587447.500 -62.500
21573650.000 4587255.000 -175.000
21573800.000 4587640.000 40.000
21574000.000 4587462.500 53.750
21573600.000 4587630.000 -40.000
21573625.000 4587442.500 -107.500
21573675.000 4587707.500 -26.250
21573825.000 4587715.000 33.750
21573975.000 4587722.500 90.000
21573750.000 4587785.000 -12.500
21573850.000 4587790.000 27.500
21573950.000 4587795.000 65.000
21573825.000 4587862.500 1.250
21573875.000 4587865.000 21.250
21573925.000 4587867.500 40.000
21573900.000 4587940.000 15.000
21574150.000 4587867.500 163.750
21574100.000 4587795.000 147.500
21574200.000 4587940.000 180.000
21574250.000 4587870.000 183.750
21574100.000 4588050.000 53.750
21574325.000 4588050.000 177.500
21574800.000 4587940.000 155.000
21574300.000 4588160.000 92.500
21574450.000 4588160.000 175.000
21574775.000 4588050.000 158.750
21574500.000 4588270.000 131.250
21574575.000 4588270.000 172.500
21574750.000 4588160.000 162.500
21574700.000 4588380.000 170.000
21574725.000 4588270.000 166.250
21574875.000 4588270.000 196.250
21574850.000 4588160.000 182.500
21574900.000 4588380.000 210.000
21574975.000 4588270.000 198.750
21575100.000 4588380.000 295.000
21575125.000 4588270.000 262.500
21575050.000 4588160.000 187.500
21575125.000 4588270.000 262.500
21575150.000 4588160.000 230.000
21575175.000 4588270.000 295.000
21575250.000 4588160.000 295.000
21575175.000 4588050.000 197.500
21575325.000 4588050.000 295.000
21575150.000 4588160.000 230.000
21575175.000 4588050.000 197.500
21575125.000 4588050.000 176.250
21574825.000 4588050.000 168.750
21575200.000 4587940.000 165.000
21574900.000 4587875.000 167.500
21574800.000 4587872.500 167.500
21575200.000 4587875.000 175.000
21575000.000 4587810.000 180.000
21575350.000 4587875.000 272.500
21575300.000 4587810.000 250.000
21575400.000 4587940.000 295.000
21575400.000 4587875.000 298.750
21575400.000 4587835.258 301.043
21575397.016 4587813.875 300.711
21575396.484 4587810.000 300.651
21575388.453 4587752.500 299.758
21575250.000 4587745.000 227.500
21575387.406 4587745.000 299.642
21575200.000 4587810.000 185.000
21575200.000 4587745.000 195.000
21575100.000 4587745.000 192.500
21574800.000 4587737.500 192.500
21575200.000 4587680.000 205.000
21574800.000 4587670.000 205.000
21574875.000 4587500.000 182.500
21574750.000 4587490.000 176.250
21575175.000 4587507.500 182.500
21574950.000 4587330.000 160.000
21575225.000 4587512.500 221.250
21575250.000 4587345.000 237.500
21575376.609 4587657.617 298.139
21575365.359 4587512.500 294.937
21575378.344 4587680.000 298.633
21575379.578 4587688.844 298.770
21575364.234 4587498.078 294.619
21575354.922 4587377.977 291.969
21575350.000 4587345.000 290.000
21575275.000 4587177.500 253.750
21575150.000 4587335.000 160.000
21575325.000 4587177.500 280.000
21575300.000 4587010.000 270.000
21575125.000 4587162.500 137.500
21575100.000 4586990.000 115.000
21575025.000 4587160.000 137.500
21575275.000 4586880.000 263.750
21575125.000 4586865.000 147.500
21575250.000 4586750.000 257.500
21575025.000 4586847.500 127.500
21575150.000 4586740.000 180.000
21574600.000 4586950.000 90.000
21574650.000 4586817.500 108.750
21574650.000 4587130.000 118.750
21574600.000 4587127.500 122.500
21574600.000 4587305.000 155.000
21574550.000 4587127.500 116.250
21574325.000 4587112.500 67.500
21574350.000 4587295.000 110.000
21574950.000 4586705.000 140.000
21574875.000 4586562.500 152.500
21575175.000 4586615.000 212.500
21575225.000 4586620.000 251.250
21575200.000 4586490.000 245.000
21575200.000 4586370.000 248.750
21575200.000 4586250.000 252.500
21574150.000 4587290.000 70.000
21574375.000 4587477.500 152.500
21574500.000 4587305.000 142.500
21574075.000 4587470.000 92.500
21574400.000 4587660.000 195.000
21574450.000 4587482.500 168.750
21574000.000 4587650.000 115.000
21574050.000 4587722.500 131.250
21574350.000 4587730.000 191.250
21574300.000 4587800.000 187.500
21574500.000 4587730.000 185.000
21574600.000 4587800.000 175.000
21574700.000 4587870.000 165.000
21574700.000 4587800.000 187.500
21574750.000 4587870.000 171.250
21574800.000 4587805.000 180.000
21574650.000 4587730.000 203.750
21574600.000 4587660.000 220.000
21574600.000 4587482.500 187.500
21574700.000 4587310.000 147.500
21573550.000 4587437.500 -126.250
21573450.000 4587427.500 -185.000
21573300.000 4587225.000 -330.000
21575234.047 4584689.680 175.658
21575200.000 4584625.000 160.000
21575243.547 4584639.516 173.063
21575266.875 4584516.328 166.688
21575075.000 4584410.000 132.500
21575265.031 4584454.344 164.172
21575264.031 4584420.688 162.807
21575100.000 4584230.000 130.000
21574850.000 4584320.000 91.250
21575259.469 4584267.211 156.579
21575200.000 4584110.000 136.250
21575100.000 4584085.000 107.500
21575272.875 4584179.234 152.193
[...]
POINT_DATA 626
COLOR_SCALARS GocadColor 4
0 1 0.48333 1
0 1 0.48333 1
0 1 0.48333 1
0 1 0.48333 1
0 1 0.48333 1
0 1 0.48333 1
0 1 0.48333 1
0 1 0.48333 1
0 1 0.48333 1
0 1 0.48333 1
0 1 0.48333 1
0 1 0.48333 1
0 1 0.48333 1
0 1 0.48333 1
0 1 0.48333 1
0 1 0.48333 1
0 1 0.48333 1
0 1 0.48333 1
0 1 0.48333 1
0 1 0.48333 1
0 1 0.48333 1
0 1 0.48333 1
0 1 0.48333 1
0 1 0.48333 1
0 1 0.48333 1
0 1 0.48333 1
0 1 0.48333 1
0 1 0.48333 1
0 1 0.48333 1
0 1 0.48333 1
0 1 0.48333 1
0 1 0.48333 1
0 1 0.48333 1
0 1 0.48333 1
0 1 0.48333 1
0 1 0.48333 1
0 1 0.48333 1
0 1 0.48333 1
0 1 0.48333 1
0 1 0.48333 1
0 1 0.48333 1
0 1 0.48333 1
0 1 0.48333 1
0 1 0.48333 1
0 1 0.48333 1
0 1 0.48333 1
0 1 0.48333 1
0 1 0.48333 1
0 1 0.48333 1
0 1 0.48333 1
0 1 0.48333 1
0 1 0.48333 1
0 1 0.48333 1
0 1 0.48333 1
0 1 0.48333 1
0 1 0.48333 1
0 1 0.48333 1
0 1 0.48333 1
0 1 0.48333 1
0 1 0.48333 1
0 1 0.48333 1
0 1 0.48333 1
0 1 0.48333 1
0 1 0.48333 1
0 1 0.48333 1
0 1 0.48333 1
0 1 0.48333 1
0 1 0.48333 1
0 1 0.48333 1
0 1 0.48333 1
0 1 0.48333 1
0 1 0.48333 1
0 1 0.48333 1
0 1 0.48333 1
0 1 0.48333 1
0 1 0.48333 1
0 1 0.48333 1
0 1 0.48333 1
0 1 0.48333 1
0 1 0.48333 1
0 1 0.48333 1
0 1 0.48333 1
0 1 0.48333 1
0 1 0.48333 1
0 1 0.48333 1
0 1 0.48333 1
0 1 0.48333 1
0 1 0.48333 1
0 1 0.48333 1
0 1 0.48333 1
0 1 0.48333 1
0 1 0.48333 1
0 1 0.48333 1
0 1 0.48333 1
0 1 0.48333 1
0 1 0.48333 1
0 1 0.48333 1
0 1 0.48333 1
0 1 0.48333 1
0 1 0.48333 1
0 1 0.48333 1
0 1 0.48333 1
0 1 0.48333 1
0 1 0.48333 1
0 1 0.48333 1
0 1 0.48333 1
0 1 0.48333 1
0 1 0.48333 1
0 1 0.48333 1
0 1 0.48333 1
0 1 0.48333 1
0 1 0.48333 1
0 1 0.48333 1
0 1 0.48333 1
0 1 0.48333 1
0 1 0.48333 1
0 1 0.48333 1
0 1 0.48333 1
0 1 0.48333 1
0 1 0.48333 1
0 1 0.48333 1
0 1 0.48333 1
0 1 0.48333 1
0 1 0.48333 1
0 1 0.48333 1
0 1 0.48333 1
0 1 0.48333 1
0 1 0.48333 1
0 1 0.48333 1
0 1 0.48333 1
0 1 0.48333 1
0 1 0.48333 1
0 1 0.48333 1
0 1 0.48333 1
0 1 0.48333 1
0 1 0.48333 1
0 1 0.48333 1
0 1 0.48333 1
0 1 0.48333 1
0 1 0.48333 1
0 1 0.48333 1
0 1 0.48333 1
0 1 0.48333 1
0 1 0.48333 1
0 1 0.48333 1
0 1 0.48333 1
0 1 0.48333 1
0 1 0.48333 1
0 1 0.48333 1
0 1 0.48333 1
0 1 0.48333 1
0 1 0.48333 1
0 1 0.48333 1
0 1 0.48333 1
0 1 0.48333 1
0 1 0.48333 1
0 1 0.48333 1
0 1 0.48333 1
0 1 0.48333 1
0 1 0.48333 1
0 1 0.48333 1
0 1 0.48333 1
0 1 0.48333 1
0 1 0.48333 1
0 1 0.48333 1
0 1 0.48333 1
0 1 0.48333 1
0 1 0.48333 1
0 1 0.48333 1
0 1 0.48333 1
0 1 0.48333 1
0 1 0.48333 1
0 1 0.48333 1
0 1 0.48333 1
0 1 0.48333 1
0 1 0.48333 1
0 1 0.48333 1
0 1 0.48333 1
0 1 0.48333 1
0 1 0.48333 1
0 1 0.48333 1
0 1 0.48333 1
0 1 0.48333 1
0 1 0.48333 1
0 1 0.48333 1
0 1 0.48333 1
0 1 0.48333 1
0 1 0.48333 1
0 1 0.48333 1
0 1 0.48333 1
0 1 0.48333 1
0 1 0.48333 1
0 1 0.48333 1
0 1 0.48333 1
0 1 0.48333 1
0 1 0.48333 1
0 1 0.48333 1
0 1 0.48333 1
0 1 0.48333 1
0 1 0.48333 1
0 1 0.48333 1
0 1 0.48333 1
0 1 0.48333 1
0 1 0.48333 1
0 1 0.48333 1
0 1 0.48333 1
0 1 0.48333 1
0 1 0.48333 1
0 1 0.48333 1
0 1 0.48333 1
0 1 0.48333 1
0 1 0.48333 1
0 1 0.48333 1
0 1 0.48333 1
0 1 0.48333 1
0 1 0.48333 1
0 1 0.48333 1
0 1 0.48333 1
0 1 0.48333 1
0 1 0.48333 1
0 1 0.48333 1
0 1 0.48333 1
0 1 0.48333 1
0 1 0.48333 1
0 1 0.48333 1
0 1 0.48333 1
0 1 0.48333 1
0 1 0.48333 1
0 1 0.48333 1
0 1 0.48333 1
0 1 0.48333 1
0 1 0.48333 1
0 1 0.48333 1
0 1 0.48333 1
0 1 0.48333 1
0 1 0.48333 1
0 1 0.48333 1
0 1 0.48333 1
0 1 0.48333 1
0 1 0.48333 1
0 1 0.48333 1
0 1 0.48333 1
0 1 0.48333 1
0 1 0.48333 1
0 1 0.48333 1
0 1 0.48333 1
0 1 0.48333 1
0 1 0.48333 1
0 1 0.48333 1
0 1 0.48333 1
0 1 0.48333 1
0 1 0.48333 1
0 1 0.48333 1
0 1 0.48333 1
0 1 0.48333 1
0 1 0.48333 1
0 1 0.48333 1
0 1 0.48333 1
0 1 0.48333 1
0 1 0.48333 1
0 1 0.48333 1
0 1 0.48333 1
0 1 0.48333 1
0 1 0.48333 1
0 1 0.48333 1
0 1 0.48333 1
0 1 0.48333 1
0 1 0.48333 1
0 1 0.48333 1
0 1 0.48333 1
0 1 0.48333 1
0 1 0.48333 1
0 1 0.48333 1
0 1 0.48333 1
0 1 0.48333 1
0 1 0.48333 1
0 1 0.48333 1
0 1 0.48333 1
0 1 0.48333 1
0 1 0.48333 1
0 1 0.48333 1
0 1 0.48333 1
0 1 0.48333 1
0 1 0.48333 1
0 1 0.48333 1
0 1 0.48333 1
0 1 0.48333 1
0 1 0.48333 1
0 1 0.48333 1
0 1 0.48333 1
0 1 0.48333 1
0 1 0.48333 1
0 1 0.48333 1
0 1 0.48333 1
0 1 0.48333 1
0 1 0.48333 1
0 1 0.48333 1
0 1 0.48333 1
0 1 0.48333 1
0 1 0.48333 1
0 1 0.48333 1
0 1 0.48333 1
0 1 0.48333 1
0 1 0.48333 1
0 1 0.48333 1
0 1 0.48333 1
0 1 0.48333 1
0 1 0.48333 1
0 1 0.48333 1
0 1 0.48333 1
0 1 0.48333 1
0 1 0.48333 1
0 1 0.48333 1
0 1 0.48333 1
0 1 0.48333 1
0 1 0.48333 1
0 1 0.48333 1
0 1 0.48333 1
0 1 0.48333 1
0 1 0.48333 1
0 1 0.48333 1
0 1 0.48333 1
0 1 0.48333 1
0 1 0.48333 1
0 1 0.48333 1
0 1 0.48333 1
0 1 0.48333 1
0 1 0.48333 1
0 1 0.48333 1
0 1 0.48333 1
0 1 0.48333 1
0 1 0.48333 1
0 1 0.48333 1
0 1 0.48333 1
0 1 0.48333 1
0 1 0.48333 1
0 1 0.48333 1
0 1 0.48333 1
0 1 0.48333 1
0 1 0.48333 1
0 1 0.48333 1
0 1 0.48333 1
0 1 0.48333 1
0 1 0.48333 1
0 1 0.48333 1
0 1 0.48333 1
0 1 0.48333 1
0 1 0.48333 1
0 1 0.48333 1
0 1 0.48333 1
0 1 0.48333 1
0 1 0.48333 1
0 1 0.48333 1
0 1 0.48333 1
0 1 0.48333 1
0 1 0.48333 1
0 1 0.48333 1
0 1 0.48333 1
0 1 0.48333 1
0 1 0.48333 1
0 1 0.48333 1
0 1 0.48333 1
0 1 0.48333 1
0 1 0.48333 1
0 1 0.48333 1
0 1 0.48333 1
0 1 0.48333 1
0 1 0.48333 1
0 1 0.48333 1
0 1 0.48333 1
0 1 0.48333 1
0 1 0.48333 1
0 1 0.48333 1
0 1 0.48333 1
0 1 0.48333 1
0 1 0.48333 1
0 1 0.48333 1
0 1 0.48333 1
0 1 0.48333 1
0 1 0.48333 1
0 1 0.48333 1
0 1 0.48333 1
0 1 0.48333 1
0 1 0.48333 1
0 1 0.48333 1
0 1 0.48333 1
0 1 0.48333 1
0 1 0.48333 1
0 1 0.48333 1
0 1 0.48333 1
0 1 0.48333 1
0 1 0.48333 1
0 1 0.48333 1
0 1 0.48333 1
0 1 0.48333 1
0 1 0.48333 1
0 1 0.48333 1
0 1 0.48333 1
0 1 0.48333 1
0 1 0.48333 1
0 1 0.48333 1
0 1 0.48333 1
0 1 0.48333 1
0 1 0.48333 1
0 1 0.48333 1
0 1 0.48333 1
0 1 0.48333 1
0 1 0.48333 1
0 1 0.48333 1
0 1 0.48333 1
0 1 0.48333 1
0 1 0.48333 1
0 1 0.48333 1
0 1 0.48333 1
0 1 0.48333 1
0 1 0.48333 1
0 1 0.48333 1
0 1 0.48333 1
0 1 0.48333 1
0 1 0.48333 1
0 1 0.48333 1
0 1 0.48333 1
0 1 0.48333 1
0 1 0.48333 1
0 1 0.48333 1
0 1 0.48333 1
0 1 0.48333 1
0 1 0.48333 1
0 1 0.48333 1
0 1 0.48333 1
0 1 0.48333 1
0 1 0.48333 1
0 1 0.48333 1
0 1 0.48333 1
0 1 0.48333 1
0 1 0.48333 1
0 1 0.48333 1
0 1 0.48333 1
0 1 0.48333 1
0 1 0.48333 1
0 1 0.48333 1
0 1 0.48333 1
0 1 0.48333 1
0 1 0.48333 1
0 1 0.48333 1
0 1 0.48333 1
0 1 0.48333 1
0 1 0.48333 1
0 1 0.48333 1
0 1 0.48333 1
0 1 0.48333 1
0 1 0.48333 1
0 1 0.48333 1
0 1 0.48333 1
0 1 0.48333 1
0 1 0.48333 1
0 1 0.48333 1
0 1 0.48333 1
0 1 0.48333 1
0 1 0.48333 1
0 1 0.48333 1
0 1 0.48333 1
0 1 0.48333 1
0 1 0.48333 1
0 1 0.48333 1
0 1 0.48333 1
0 1 0.48333 1
0 1 0.48333 1
0 1 0.48333 1
0 1 0.48333 1
0 1 0.48333 1
0 1 0.48333 1
0 1 0.48333 1
0 1 0.48333 1
0 1 0.48333 1
0 1 0.48333 1
0 1 0.48333 1
0 1 0.48333 1
0 1 0.48333 1
0 1 0.48333 1
0 1 0.48333 1
0 1 0.48333 1
0 1 0.48333 1
0 1 0.48333 1
0 1 0.48333 1
0 1 0.48333 1
0 1 0.48333 1
0 1 0.48333 1
0 1 0.48333 1
0 1 0.48333 1
0 1 0.48333 1
0 1 0.48333 1
0 1 0.48333 1
0 1 0.48333 1
0 1 0.48333 1
0 1 0.48333 1
0 1 0.48333 1
0 1 0.48333 1
0 1 0.48333 1
0 1 0.48333 1
0 1 0.48333 1
0 1 0.48333 1
0 1 0.48333 1
0 1 0.48333 1
0 1 0.48333 1
0 1 0.48333 1
0 1 0.48333 1
0 1 0.48333 1
0 1 0.48333 1
0 1 0.48333 1
0 1 0.48333 1
0 1 0.48333 1
0 1 0.48333 1
0 1 0.48333 1
0 1 0.48333 1
0 1 0.48333 1
0 1 0.48333 1
0 1 0.48333 1
0 1 0.48333 1
0 1 0.48333 1
0 1 0.48333 1
0 1 0.48333 1
0 1 0.48333 1
0 1 0.48333 1
0 1 0.48333 1
0 1 0.48333 1
0 1 0.48333 1
0 1 0.48333 1
0 1 0.48333 1
0 1 0.48333 1
0 1 0.48333 1
0 1 0.48333 1
0 1 0.48333 1
0 1 0.48333 1
0 1 0.48333 1
0 1 0.48333 1
0 1 0.48333 1
0 1 0.48333 1
0 1 0.48333 1
0 1 0.48333 1
0 1 0.48333 1
0 1 0.48333 1
0 1 0.48333 1
0 1 0.48333 1
0 1 0.48333 1
0 1 0.48333 1
0 1 0.48333 1
0 1 0.48333 1
0 1 0.48333 1
0 1 0.48333 1
0 1 0.48333 1
0 1 0.48333 1
0 1 0.48333 1
0 1 0.48333 1
0 1 0.48333 1
0 1 0.48333 1
0 1 0.48333 1
0 1 0.48333 1
0 1 0.48333 1
0 1 0.48333 1
0 1 0.48333 1
0 1 0.48333 1
0 1 0.48333 1
0 1 0.48333 1
0 1 0.48333 1
0 1 0.48333 1
0 1 0.48333 1
0 1 0.48333 1
0 1 0.48333 1
0 1 0.48333 1
0 1 0.48333 1
0 1 0.48333 1
0 1 0.48333 1
0 1 0.48333 1
0 1 0.48333 1
0 1 0.48333 1
0 1 0.48333 1
0 1 0.48333 1
0 1 0.48333 1
0 1 0.48333 1
0 1 0.48333 1
0 1 0.48333 1
0 1 0.48333 1
0 1 0.48333 1
0 1 0.48333 1
0 1 0.48333 1
0 1 0.48333 1
0 1 0.48333 1
0 1 0.48333 1
0 1 0.48333 1
0 1 0.48333 1
0 1 0.48333 1
0 1 0.48333 1
0 1 0.48333 1
0 1 0.48333 1
0 1 0.48333 1
0 1 0.48333 1
0 1 0.48333 1
0 1 0.48333 1
0 1 0.48333 1
0 1 0.48333 1
0 1 0.48333 1
0 1 0.48333 1
0 1 0.48333 1
0 1 0.48333 1
0 1 0.48333 1
0 1 0.48333 1
0 1 0.48333 1
0 1 0.48333 1
0 1 0.48333 1
0 1 0.48333 1
0 1 0.48333 1
0 1 0.48333 1
0 1 0.48333 1
0 1 0.48333 1
0 1 0.48333 1
0 1 0.48333 1
0 1 0.48333 1
0 1 0.48333 1
0 1 0.48333 1
0 1 0.48333 1
0 1 0.48333 1
0 1 0.48333 1
0 1 0.48333 1
0 1 0.48333 1
0 1 0.48333 1

