# vtk DataFile Version 3.0
Gocad TSurf to VTK
ASCII
DATASET POLYDATA
POINTS 3091 float
21549092.234 4553884.609 -859.782
21549156.438 4553849.723 -519.564
21549101.906 4553891.344 -859.021
21549175.781 4553863.195 -518.042
21549028.047 4553919.496 -1200.000
21549137.094 4553836.250 -521.087
21549191.609 4553794.629 -181.630
21549082.563 4553877.875 -860.543
21549117.734 4553822.781 -522.164
21549162.578 4553774.426 -183.245
21549072.891 4553871.141 -861.082
21549064.875 4553779.531 -522.164
21548993.594 4553806.258 -861.082
21549136.141 4553752.801 -183.245
21549107.125 4553732.594 -183.897
21549207.422 4553726.070 155.673
21549168.734 4553699.129 154.804
21549130.031 4553672.188 153.935
21549078.094 4553712.387 -184.549
21549045.531 4553766.059 -522.598
21549082.906 4553714.789 -184.549
21549035.781 4553757.395 -523.033
21549066.094 4553695.566 -184.549
21549091.328 4553645.246 153.065
21549037.063 4553675.359 -185.201
21549002.141 4553718.945 -523.033
21549052.641 4553618.305 152.197
21549008.047 4553655.156 -185.852
21548982.781 4553705.477 -523.467
21549013.938 4553591.363 151.327
21548979.016 4553634.949 -186.505
21548963.438 4553692.008 -523.902
21548975.250 4553564.422 150.459
21548950.000 4553614.742 -187.156
21548944.094 4553678.535 -524.336
21548901.938 4553559.477 -187.156
21548924.750 4553665.063 -524.771
21548936.547 4553537.480 149.589
21548872.906 4553539.270 -187.808
21548828.625 4553554.531 -524.771
21548904.344 4553509.156 149.320
21548848.766 4553518.027 -188.010
21548809.281 4553541.059 -525.205
21548872.125 4553480.832 149.050
21548824.594 4553496.781 -188.213
21548793.188 4553526.898 -525.340
21548839.906 4553452.508 148.780
21548800.438 4553475.539 -188.415
21548777.063 4553512.734 -525.475
21548807.703 4553424.184 148.728
21548776.281 4553454.297 -188.454
21548760.969 4553498.570 -525.610
21548752.125 4553433.055 -188.273
21548728.750 4553470.250 -525.515
21548775.500 4553395.859 148.970
21548727.969 4553411.813 -188.092
21548712.656 4553456.086 -525.395
21548743.281 4553367.535 149.211
21548701.141 4553388.391 -187.905
21548694.766 4553440.473 -525.270
21548707.516 4553336.309 149.460
21548614.625 4553311.496 -187.905
21548671.750 4553305.086 149.709
21548587.813 4553288.078 -187.718
21548521.750 4553286.684 -525.270
21548635.984 4553273.859 149.959
21548560.984 4553264.660 -187.531
21548503.875 4553271.070 -525.145
21548600.203 4553242.633 150.207
21548534.156 4553241.238 -187.344
21548485.984 4553255.461 -525.021
21548564.438 4553211.406 150.457
21548507.328 4553217.820 -187.157
21548468.094 4553239.844 -524.896
21548528.672 4553180.184 150.706
21548480.500 4553194.402 -186.971
21548450.219 4553224.234 -524.772
21548492.906 4553148.957 150.955
21548453.672 4553170.984 -186.783
21548432.328 4553208.621 -524.647
21548452.672 4553127.059 153.014
21548423.500 4553154.559 -185.239
21548414.438 4553193.008 -524.522
21548393.328 4553138.137 -183.636
21548374.219 4553171.109 -522.424
21548412.438 4553105.164 155.152
21548363.156 4553121.715 -182.032
21548354.094 4553160.164 -521.355
21548372.203 4553083.266 157.291
21548332.969 4553105.289 -180.428
21548333.969 4553149.211 -520.286
21548331.969 4553061.367 159.429
21548302.813 4553088.867 -178.825
21548313.875 4553138.266 -519.217
21548291.750 4553039.473 161.566
21548272.625 4553072.445 -177.222
21548293.750 4553127.316 -518.148
21548251.516 4553017.574 163.705
21548242.453 4553056.023 -175.618
21548273.625 4553116.367 -517.079
21548211.281 4552995.676 165.843
21548212.281 4553039.602 -174.014
21548253.516 4553105.422 -516.010
21548171.047 4552973.781 167.981
21548039.266 4552938.676 -174.014
21548130.813 4552951.883 170.119
21548009.094 4552922.254 -172.411
21547907.500 4552903.570 -516.010
21548092.391 4552930.867 172.166
21547980.281 4552906.492 -170.876
21547887.375 4552892.625 -514.941
21548053.984 4552909.855 174.212
21547951.469 4552890.734 -169.341
21547868.156 4552882.117 -513.917
21548015.563 4552888.840 176.259
21547922.656 4552874.969 -167.806
21547848.969 4552871.609 -512.894
21547977.156 4552867.828 178.468
21547893.844 4552859.211 -166.149
21547829.750 4552861.102 -511.871
21547938.734 4552846.813 182.019
21547865.031 4552843.449 -163.486
21547810.547 4552850.594 -510.766
21547900.328 4552825.801 185.569
21547836.234 4552827.691 -160.823
21547791.344 4552840.086 -508.990
21547861.906 4552804.785 189.121
21547807.406 4552811.930 -158.159
21547772.125 4552829.582 -507.215
21547820.891 4552779.246 193.174
21547776.656 4552792.773 -155.120
21547752.922 4552819.074 -505.440
21547745.891 4552773.625 -152.080
21547711.906 4552793.539 -501.387
21547779.875 4552753.711 197.227
21547715.125 4552754.469 -149.040
21547691.406 4552780.766 -499.360
21547738.859 4552728.172 201.280
21547684.375 4552735.316 -146.000
21547670.891 4552768.000 -497.334
21547697.844 4552702.633 205.333
21547653.609 4552716.160 -142.961
21547650.375 4552755.227 -495.307
21547656.828 4552677.094 209.386
21547622.844 4552697.008 -139.921
21547629.875 4552742.461 -493.281
21547615.813 4552651.559 213.438
21547592.078 4552677.855 -136.881
21547609.375 4552729.691 -491.254
21547574.797 4552626.020 217.491
21547467.125 4552591.352 -136.881
21547533.781 4552600.480 221.545
21547436.375 4552572.195 -133.842
21547359.469 4552556.680 -491.254
21547492.766 4552574.945 225.597
21547405.609 4552553.043 -130.802
21547338.953 4552543.910 -489.228
21547451.750 4552549.406 228.889
21547374.844 4552533.891 -128.333
21547318.438 4552531.141 -487.201
21547415.922 4552521.465 231.921
21547347.969 4552512.934 -126.059
21547297.938 4552518.375 -485.555
21547380.078 4552493.520 234.953
21547321.094 4552491.977 -123.785
21547280.031 4552504.402 -484.039
21547344.250 4552465.578 237.985
21547294.219 4552471.020 -121.511
21547262.094 4552490.430 -482.523
21547308.422 4552437.637 241.017
21547267.344 4552450.063 -119.237
21547244.188 4552476.461 -481.007
21547240.469 4552429.105 -116.964
21547208.359 4552448.516 -477.976
21547272.594 4552409.695 244.048
21547213.594 4552408.148 -114.689
21547190.438 4552434.547 -476.460
21547236.750 4552381.750 247.081
21547186.719 4552387.191 -112.416
21547172.531 4552420.574 -474.944
21547200.922 4552353.809 250.112
21547124.250 4552329.520 -112.416
21547165.094 4552325.867 253.144
21547097.375 4552308.563 -110.142
21547047.563 4552305.234 -474.944
21547129.250 4552297.922 256.176
21547070.500 4552287.605 -107.868
21547029.656 4552291.262 -473.428
21547093.422 4552269.980 259.208
21547043.625 4552266.648 -105.594
21547011.734 4552277.289 -471.912
21547027.094 4552235.227 -102.775
21546982.797 4552242.367 -468.516
21547071.375 4552228.082 262.967
21547010.547 4552203.801 -99.955
21546971.781 4552221.422 -466.637
21547049.328 4552186.184 266.726
21546994.016 4552172.379 -97.136
21546960.750 4552200.469 -464.757
21547027.281 4552144.285 270.486
21546977.484 4552140.953 -94.316
21546949.719 4552179.523 -462.878
21547005.234 4552102.387 274.245
21546951.047 4552085.688 -94.316
21546983.188 4552060.488 278.004
21546934.516 4552054.262 -91.497
21546896.875 4552068.984 -462.878
21546931.188 4552020.484 -88.825
21546883.625 4552025.516 -459.217
21546978.750 4552015.449 281.566
21546927.875 4551986.707 -86.154
21546881.406 4552003.000 -457.436
21546974.328 4551970.414 285.128
21546924.563 4551952.930 -83.482
21546879.203 4551980.480 -455.655
21546969.906 4551925.375 288.690
21546921.219 4551919.148 -80.810
21546876.984 4551957.961 -453.874
21546965.469 4551880.336 292.253
21546936.797 4551889.656 -78.937
21546887.375 4551938.301 -452.624
21546986.234 4551841.016 294.751
21546919.984 4551822.375 -78.937
21546853.719 4551803.734 -452.624
21546935.563 4551792.887 -77.063
21546864.109 4551784.078 -451.376
21547007.000 4551801.699 297.249
21546951.125 4551763.398 -75.190
21546874.500 4551764.418 -450.127
21547027.766 4551762.383 299.747
21546966.703 4551733.910 -73.316
21546884.875 4551744.758 -448.878
21547048.531 4551723.063 302.245
21546993.875 4551719.340 -72.606
21546902.984 4551735.047 -448.404
21547084.750 4551703.637 303.192
21547022.703 4551668.879 -72.606
21546960.656 4551634.125 -448.404
21547049.859 4551654.313 -71.545
21546978.750 4551624.410 -447.696
21547120.969 4551684.211 304.607
21547077.031 4551639.742 -70.484
21546996.875 4551614.699 -446.990
21547157.203 4551664.789 306.021
21547104.203 4551625.176 -69.423
21547014.984 4551604.984 -446.282
21547193.422 4551645.363 307.436
21547132.234 4551620.477 -69.862
21547033.672 4551601.852 -446.575
21547230.797 4551639.098 306.851
21547209.125 4551596.445 -69.862
21547187.469 4551553.793 -446.575
21547237.156 4551591.742 -70.300
21547206.141 4551550.656 -446.866
21547268.156 4551632.828 306.267
21547265.188 4551587.043 -70.738
21547224.828 4551547.523 -447.159
21547305.531 4551626.563 305.682
21547293.219 4551582.344 -71.177
21547243.516 4551544.391 -447.451
21547342.906 4551620.297 305.097
21547328.313 4551576.469 -71.728
21547266.922 4551540.477 -447.819
21547389.719 4551612.465 304.362
21547363.438 4551570.602 -72.281
21547290.344 4551536.563 -448.187
21547436.547 4551604.637 303.626
21547398.547 4551564.727 -72.832
21547313.750 4551532.648 -448.555
21547483.359 4551596.805 302.891
21547433.672 4551558.855 -73.384
21547337.156 4551528.734 -448.923
21547530.188 4551588.977 302.155
21547520.188 4551549.242 -73.384
21547510.172 4551509.508 -448.923
21547555.281 4551543.367 -73.935
21547533.578 4551505.594 -449.290
21547577.000 4551581.145 301.419
21547591.813 4551545.293 -75.701
21547557.922 4551506.875 -450.467
21547625.688 4551583.711 299.065
21547628.313 4551547.215 -77.111
21547582.250 4551508.156 -451.407
21547674.359 4551586.273 297.186
21547664.828 4551549.141 -78.165
21547606.594 4551509.441 -452.110
21547723.047 4551588.840 295.780
21547701.344 4551551.066 -79.220
21547630.938 4551510.727 -452.813
21547771.734 4551591.406 294.373
21547737.859 4551552.988 -80.274
21547655.281 4551512.008 -453.516
21547820.422 4551593.969 292.968
21547800.328 4551545.777 -80.274
21547780.250 4551497.586 -453.516
[...]
POINT_DATA 3091
COLOR_SCALARS GocadColor 4
0.588235 0.321569 0.176471 1
0.588235 0.321569 0.176471 1
0.588235 0.321569 0.176471 1
0.588235 0.321569 0.176471 1
0.588235 0.321569 0.176471 1
0.588235 0.321569 0.176471 1
0.588235 0.321569 0.176471 1
0.588235 0.321569 0.176471 1
0.588235 0.321569 0.176471 1
0.588235 0.321569 0.176471 1
0.588235 0.321569 0.176471 1
0.588235 0.321569 0.176471 1
0.588235 0.321569 0.176471 1
0.588235 0.321569 0.176471 1
0.588235 0.321569 0.176471 1
0.588235 0.321569 0.176471 1
0.588235 0.321569 0.176471 1
0.588235 0.321569 0.176471 1
0.588235 0.321569 0.176471 1
0.588235 0.321569 0.176471 1
0.588235 0.321569 0.176471 1
0.588235 0.321569 0.176471 1
0.588235 0.321569 0.176471 1
0.588235 0.321569 0.176471 1
0.588235 0.321569 0.176471 1
0.588235 0.321569 0.176471 1
0.588235 0.321569 0.176471 1
0.588235 0.321569 0.176471 1
0.588235 0.321569 0.176471 1
0.588235 0.321569 0.176471 1
0.588235 0.321569 0.176471 1
0.588235 0.321569 0.176471 1
0.588235 0.321569 0.176471 1
0.588235 0.321569 0.176471 1
0.588235 0.321569 0.176471 1
0.588235 0.321569 0.176471 1
0.588235 0.321569 0.176471 1
0.588235 0.321569 0.176471 1
0.588235 0.321569 0.176471 1
0.588235 0.321569 0.176471 1
0.588235 0.321569 0.176471 1
0.588235 0.321569 0.176471 1
0.588235 0.321569 0.176471 1
0.588235 0.321569 0.176471 1
0.588235 0.321569 0.176471 1
0.588235 0.321569 0.176471 1
0.588235 0.321569 0.176471 1
0.588235 0.321569 0.176471 1
0.588235 0.321569 0.176471 1
0.588235 0.321569 0.176471 1
0.588235 0.321569 0.176471 1
0.588235 0.321569 0.176471 1
0.588235 0.321569 0.176471 1
0.588235 0.321569 0.176471 1
0.588235 0.321569 0.176471 1
0.588235 0.321569 0.176471 1
0.588235 0.321569 0.176471 1
0.588235 0.321569 0.176471 1
0.588235 0.321569 0.176471 1
0.588235 0.321569 0.176471 1
0.588235 0.321569 0.176471 1
0.588235 0.321569 0.176471 1
0.588235 0.321569 0.176471 1
0.588235 0.321569 0.176471 1
0.588235 0.321569 0.176471 1
0.588235 0.321569 0.176471 1
0.588235 0.321569 0.176471 1
0.588235 0.321569 0.176471 1
0.588235 0.321569 0.176471 1
0.588235 0.321569 0.176471 1
0.588235 0.321569 0.176471 1
0.588235 0.321569 0.176471 1
0.588235 0.321569 0.176471 1
0.588235 0.321569 0.176471 1
0.588235 0.321569 0.176471 1
0.588235 0.321569 0.176471 1
0.588235 0.321569 0.176471 1
0.588235 0.321569 0.176471 1
0.588235 0.321569 0.176471 1
0.588235 0.321569 0.176471 1
0.588235 0.321569 0.176471 1
0.588235 0.321569 0.176471 1
0.588235 0.321569 0.176471 1
0.588235 0.321569 0.176471 1
0.588235 0.321569 0.176471 1
0.588235 0.321569 0.176471 1
0.588235 0.321569 0.176471 1
0.588235 0.321569 0.176471 1
0.588235 0.321569 0.176471 1
0.588235 0.321569 0.176471 1
0.588235 0.321569 0.176471 1
0.588235 0.321569 0.176471 1
0.588235 0.321569 0.176471 1
0.588235 0.321569 0.176471 1
0.588235 0.321569 0.176471 1
0.588235 0.321569 0.176471 1
0.588235 0.321569 0.176471 1
0.588235 0.321569 0.176471 1
0.588235 0.321569 0.176471 1
0.588235 0.321569 0.176471 1
0.588235 0.321569 0.176471 1
0.588235 0.321569 0.176471 1
0.588235 0.321569 0.176471 1
0.588235 0.321569 0.176471 1
0.588235 0.321569 0.176471 1
0.588235 0.321569 0.176471 1
0.588235 0.321569 0.176471 1
0.588235 0.321569 0.176471 1
0.588235 0.321569 0.176471 1
0.588235 0.321569 0.176471 1
0.588235 0.321569 0.176471 1
0.588235 0.321569 0.176471 1
0.588235 0.321569 0.176471 1
0.588235 0.321569 0.176471 1
0.588235 0.321569 0.176471 1
0.588235 0.321569 0.176471 1
0.588235 0.321569 0.176471 1
0.588235 0.321569 0.176471 1
0.588235 0.321569 0.176471 1
0.588235 0.321569 0.176471 1
0.588235 0.321569 0.176471 1
0.588235 0.321569 0.176471 1
0.588235 0.321569 0.176471 1
0.588235 0.321569 0.176471 1
0.588235 0.321569 0.176471 1
0.588235 0.321569 0.176471 1
0.588235 0.321569 0.176471 1
0.588235 0.321569 0.176471 1
0.588235 0.321569 0.176471 1
0.588235 0.321569 0.176471 1
0.588235 0.321569 0.176471 1
0.588235 0.321569 0.176471 1
0.588235 0.321569 0.176471 1
0.588235 0.321569 0.176471 1
0.588235 0.321569 0.176471 1
0.588235 0.321569 0.176471 1
0.588235 0.321569 0.176471 1
0.588235 0.321569 0.176471 1
0.588235 0.321569 0.176471 1
0.588235 0.321569 0.176471 1
0.588235 0.321569 0.176471 1
0.588235 0.321569 0.176471 1
0.588235 0.321569 0.176471 1
0.588235 0.321569 0.176471 1
0.588235 0.321569 0.176471 1
0.588235 0.321569 0.176471 1
0.588235 0.321569 0.176471 1
0.588235 0.321569 0.176471 1
0.588235 0.321569 0.176471 1
0.588235 0.321569 0.176471 1
0.588235 0.321569 0.176471 1
0.588235 0.321569 0.176471 1
0.588235 0.321569 0.176471 1
0.588235 0.321569 0.176471 1
0.588235 0.321569 0.176471 1
0.588235 0.321569 0.176471 1
0.588235 0.321569 0.176471 1
0.588235 0.321569 0.176471 1
0.588235 0.321569 0.176471 1
0.588235 0.321569 0.176471 1
0.588235 0.321569 0.176471 1
0.588235 0.321569 0.176471 1
0.588235 0.321569 0.176471 1
0.588235 0.321569 0.176471 1
0.588235 0.321569 0.176471 1
0.588235 0.321569 0.176471 1
0.588235 0.321569 0.176471 1
0.588235 0.321569 0.176471 1
0.588235 0.321569 0.176471 1
0.588235 0.321569 0.176471 1
0.588235 0.321569 0.176471 1
0.588235 0.321569 0.176471 1
0.588235 0.321569 0.176471 1
0.588235 0.321569 0.176471 1
0.588235 0.321569 0.176471 1
0.588235 0.321569 0.176471 1
0.588235 0.321569 0.176471 1
0.588235 0.321569 0.176471 1
0.588235 0.321569 0.176471 1
0.588235 0.321569 0.176471 1
0.588235 0.321569 0.176471 1
0.588235 0.321569 0.176471 1
0.588235 0.321569 0.176471 1
0.588235 0.321569 0.176471 1
0.588235 0.321569 0.176471 1
0.588235 0.321569 0.176471 1
0.588235 0.321569 0.176471 1
0.588235 0.321569 0.176471 1
0.588235 0.321569 0.176471 1
0.588235 0.321569 0.176471 1
0.588235 0.321569 0.176471 1
0.588235 0.321569 0.176471 1
0.588235 0.321569 0.176471 1
0.588235 0.321569 0.176471 1
0.588235 0.321569 0.176471 1
0.588235 0.321569 0.176471 1
0.588235 0.321569 0.176471 1
0.588235 0.321569 0.176471 1
0.588235 0.321569 0.176471 1
0.588235 0.321569 0.176471 1
0.588235 0.321569 0.176471 1
0.588235 0.321569 0.176471 1
0.588235 0.321569 0.176471 1
0.588235 0.321569 0.176471 1
0.588235 0.321569 0.176471 1
0.588235 0.321569 0.176471 1
0.588235 0.321569 0.176471 1
0.588235 0.321569 0.176471 1
0.588235 0.321569 0.176471 1
0.588235 0.321569 0.176471 1
0.588235 0.321569 0.176471 1
0.588235 0.321569 0.176471 1
0.588235 0.321569 0.176471 1
0.588235 0.321569 0.176471 1
0.588235 0.321569 0.176471 1
0.588235 0.321569 0.176471 1
0.588235 0.321569 0.176471 1
0.588235 0.321569 0.176471 1
0.588235 0.321569 0.176471 1
0.588235 0.321569 0.176471 1
0.588235 0.321569 0.176471 1
0.588235 0.321569 0.176471 1
0.588235 0.321569 0.176471 1
0.588235 0.321569 0.176471 1
0.588235 0.321569 0.176471 1
0.588235 0.321569 0.176471 1
0.588235 0.321569 0.176471 1
0.588235 0.321569 0.176471 1
0.588235 0.321569 0.176471 1
0.588235 0.321569 0.176471 1
0.588235 0.321569 0.176471 1
0.588235 0.321569 0.176471 1
0.588235 0.321569 0.176471 1
0.588235 0.321569 0.176471 1
0.588235 0.321569 0.176471 1
0.588235 0.321569 0.176471 1
0.588235 0.321569 0.176471 1
0.588235 0.321569 0.176471 1
0.588235 0.321569 0.176471 1
0.588235 0.321569 0.176471 1
0.588235 0.321569 0.176471 1
0.588235 0.321569 0.176471 1
0.588235 0.321569 0.176471 1
0.588235 0.321569 0.176471 1
0.588235 0.321569 0.176471 1
0.588235 0.321569 0.176471 1
0.588235 0.321569 0.176471 1
0.588235 0.321569 0.176471 1
0.588235 0.321569 0.176471 1
0.588235 0.321569 0.176471 1
0.588235 0.321569 0.176471 1
0.588235 0.321569 0.176471 1
0.588235 0.321569 0.176471 1
0.588235 0.321569 0.176471 1
0.588235 0.321569 0.176471 1
0.588235 0.321569 0.176471 1
0.588235 0.321569 0.176471 1
0.588235 0.321569 0.176471 1
0.588235 0.321569 0.176471 1
0.588235 0.321569 0.176471 1
0.588235 0.321569 0.176471 1
0.588235 0.321569 0.176471 1
0.588235 0.321569 0.176471 1
0.588235 0.321569 0.176471 1
0.588235 0.321569 0.176471 1
0.588235 0.321569 0.176471 1
0.588235 0.321569 0.176471 1
0.588235 0.321569 0.176471 1
0.588235 0.321569 0.176471 1
0.588235 0.321569 0.176471 1
0.588235 0.321569 0.176471 1
0.588235 0.321569 0.176471 1
0.588235 0.321569 0.176471 1
0.588235 0.321569 0.176471 1
0.588235 0.321569 0.176471 1
0.588235 0.321569 0.176471 1
0.588235 0.321569 0.176471 1
0.588235 0.321569 0.176471 1
0.588235 0.321569 0.176471 1
0.588235 0.321569 0.176471 1
0.588235 0.321569 0.176471 1
0.588235 0.321569 0.176471 1
0.588235 0.321569 0.176471 1
0.588235 0.321569 0.176471 1
0.588235 0.321569 0.176471 1
0.588235 0.321569 0.176471 1
0.588235 0.321569 0.176471 1
0.588235 0.321569 0.176471 1
0.588235 0.321569 0.176471 1
0.588235 0.321569 0.176471 1
0.588235 0.321569 0.176471 1
0.588235 0.321569 0.176471 1
0.588235 0.321569 0.176471 1
0.588235 0.321569 0.176471 1
0.588235 0.321569 0.176471 1
0.588235 0.321569 0.176471 1
0.588235 0.321569 0.176471 1
0.588235 0.321569 0.176471 1
0.588235 0.321569 0.176471 1
0.588235 0.321569 0.176471 1
0.588235 0.321569 0.176471 1
0.588235 0.321569 0.176471 1
0.588235 0.321569 0.176471 1
0.588235 0.321569 0.176471 1
0.588235 0.321569 0.176471 1
0.588235 0.321569 0.176471 1
0.588235 0.321569 0.176471 1
0.588235 0.321569 0.176471 1
0.588235 0.321569 0.176471 1
0.588235 0.321569 0.176471 1
0.588235 0.321569 0.176471 1
0.588235 0.321569 0.176471 1
0.588235 0.321569 0.176471 1
0.588235 0.321569 0.176471 1
0.588235 0.321569 0.176471 1
0.588235 0.321569 0.176471 1
0.588235 0.321569 0.176471 1
0.588235 0.321569 0.176471 1
0.588235 0.321569 0.176471 1
0.588235 0.321569 0.176471 1
0.588235 0.321569 0.176471 1
0.588235 0.321569 0.176471 1
0.588235 0.321569 0.176471 1
0.588235 0.321569 0.176471 1
0.588235 0.321569 0.176471 1
0.588235 0.321569 0.176471 1
0.588235 0.321569 0.176471 1
0.588235 0.321569 0.176471 1
0.588235 0.321569 0.176471 1
0.588235 0.321569 0.176471 1
0.588235 0.321569 0.176471 1
0.588235 0.321569 0.176471 1
0.588235 0.321569 0.176471 1
0.588235 0.321569 0.176471 1
0.588235 0.321569 0.176471 1
0.588235 0.321569 0.176471 1
0.588235 0.321569 0.176471 1
0.588235 0.321569 0.176471 1
0.588235 0.321569 0.176471 1
0.588235 0.321569 0.176471 1
0.588235 0.321569 0.176471 1
0.588235 0.321569 0.176471 1
0.588235 0.321569 0.176471 1
0.588235 0.321569 0.176471 1
0.588235 0.321569 0.176471 1
0.588235 0.321569 0.176471 1
0.588235 0.321569 0.176471 1
0.588235 0.321569 0.176471 1
0.588235 0.321569 0.176471 1
0.588235 0.321569 0.176471 1
0.588235 0.321569 0.176471 1
0.588235 0.321569 0.176471 1
0.588235 0.321569 0.176471 1
0.588235 0.321569 0.176471 1
0.588235 0.321569 0.176471 1
0.588235 0.321569 0.176471 1
0.588235 0.321569 0.176471 1
0.588235 0.321569 0.176471 1
0.588235 0.321569 0.176471 1
0.588235 0.321569 0.176471 1
0.588235 0.321569 0.176471 1
0.588235 0.321569 0.176471 1
0.588235 0.321569 0.176471 1
0.588235 0.321569 0.176471 1
0.588235 0.321569 0.176471 1
0.588235 0.321569 0.176471 1
0.588235 0.321569 0.176471 1
0.588235 0.321569 0.176471 1
0.588235 0.321569 0.176471 1
0.588235 0.321569 0.176471 1
0.588235 0.321569 0.176471 1
0.588235 0.321569 0.176471 1
0.588235 0.321569 0.176471 1
0.588235 0.321569 0.176471 1
0.588235 0.321569 0.176471 1
0.588235 0.321569 0.176471 1
0.588235 0.321569 0.176471 1
0.588235 0.321569 0.176471 1
0.588235 0.321569 0.176471 1
0.588235 0.321569 0.176471 1
0.588235 0.321569 0.176471 1
0.588235 0.321569 0.176471 1
0.588235 0.321569 0.176471 1
0.588235 0.321569 0.176471 1
0.588235 0.321569 0.176471 1
0.588235 0.321569 0.176471 1
0.588235 0.321569 0.176471 1
0.588235 0.321569 0.176471 1
0.588235 0.321569 0.176471 1
0.588235 0.321569 0.176471 1
0.588235 0.321569 0.176471 1
0.588235 0.321569 0.176471 1
0.588235 0.321569 0.176471 1
0.588235 0.321569 0.176471 1
0.588235 0.321569 0.176471 1
0.588235 0.321569 0.176471 1
0.588235 0.321569 0.176471 1
0.588235 0.321569 0.176471 1
0.588235 0.321569 0.176471 1
0.588235 0.321569 0.176471 1
0.588235 0.321569 0.176471 1
0.588235 0.321569 0.176471 1
0.588235 0.321569 0.176471 1
0.588235 0.321569 0.176471 1
0.588235 0.321569 0.176471 1
0.588235 0.321569 0.176471 1
0.588235 0.321569 0.176471 1
0.588235 0.321569 0.176471 1
0.588235 0.321569 0.176471 1
0.588235 0.321569 0.176471 1
0.588235 0.321569 0.176471 1
0.588235 0.321569 0.176471 1
0.588235 0.321569 0.176471 1
0.588235 0.321569 0.176471 1
0.588235 0.321569 0.176471 1
0.588235 0.321569 0.176471 1
0.588235 0.321569 0.176471 1
0.588235 0.321569 0.176471 1
0.588235 0.321569 0.176471 1
0.588235 0.321569 0.176471 1
0.588235 0.321569 0.176471 1
0.588235 0.321569 0.176471 1
0.588235 0.321569 0.176471 1
0.588235 0.321569 0.176471 1
0.588235 0.321569 0.176471 1
0.588235 0.321569 0.176471 1
0.588235 0.321569 0.176471 1
0.588235 0.321569 0.176471 1
0.588235 0.321569 0.176471 1
0.588235 0.321569 0.176471 1
0.588235 0.321569 0.176471 1
0.588235 0.321569 0.176471 1
0.588235 0.321569 0.176471 1
0.588235 0.321569 0.176471 1
0.588235 0.321569 0.176471 1
0.588235 0.321569 0.176471 1
0.588235 0.321569 0.176471 1
0.588235 0.321569 0.176471 1
0.588235 0.321569 0.176471 1
0.588235 0.321569 0.176471 1
0.588235 0.321569 0.176471 1
0.588235 0.321569 0.176471 1
0.588235 0.321569 0.176471 1
0.588235 0.321569 0.176471 1
0.588235 0.321569 0.176471 1
0.588235 0.321569 0.176471 1
0.588235 0.321569 0.176471 1
0.588235 0.321569 0.176471 1
0.588235 0.321569 0.176471 1
0.588235 0.321569 0.176471 1
0.588235 0.321569 0.176471 1
0.588235 0.321569 0.176471 1
0.588235 0.321569 0.176471 1
0.588235 0.321569 0.176471 1
0.588235 0.321569 0.176471 1
0.588235 0.321569 0.176471 1
0.588235 0.321569 0.176471 1
0.588235 0.321569 0.176471 1
0.588235 0.321569 0.176471 1
0.588235 0.321569 0.176471 1
0.588235 0.321569 0.176471 1
0.588235 0.321569 0.176471 1
0.588235 0.321569 0.176471 1
0.588235 0.321569 0.176471 1
0.588235 0.321569 0.176471 1
0.588235 0.321569 0.176471 1
0.588235 0.321569 0.176471 1
0.588235 0.321569 0.176471 1
0.588235 0.321569 0.176471 1
0.588235 0.321569 0.176471 1
0.588235 0.321569 0.176471 1
0.588235 0.321569 0.176471 1
0.588235 0.321569 0.176471 1
0.588235 0.321569 0.176471 1
0.588235 0.321569 0.176471 1
0.588235 0.321569 0.176471 1
0.588235 0.321569 0.176471 1
0.588235 0.321569 0.176471 1
0.588235 0.321569 0.176471 1
0.588235 0.321569 0.176471 1
0.588235 0.321569 0.176471 1
0.588235 0.321569 0.176471 1
0.588235 0.321569 0.176471 1
0.588235 0.321569 0.176471 1
0.588235 0.321569 0.176471 1
0.588235 0.321569 0.176471 1
0.588235 0.321569 0.176471 1
0.588235 0.321569 0.176471 1
0.588235 0.321569 0.176471 1
0.588235 0.321569 0.176471 1
0.588235 0.321569 0.176471 1
0.588235 0.321569 0.176471 1
0.588235 0.321569 0.176471 1
0.588235 0.321569 0.176471 1
0.588235 0.321569 0.176471 1
0.588235 0.321569 0.176471 1
0.588235 0.321569 0.176471 1
0.588235 0.321569 0.176471 1
0.588235 0.321569 0.176471 1
0.588235 0.321569 0.176471 1
0.588235 0.321569 0.176471 1
0.588235 0.321569 0.176471 1
0.588235 0.321569 0.176471 1
0.588235 0.321569 0.176471 1
0.588235 0.321569 0.176471 1
0.588235 0.321569 0.176471 1
0.588235 0.321569 0.176471 1
0.588235 0.321569 0.176471 1
0.588235 0.321569 0.176471 1
0.588235 0.321569 0.176471 1
0.588235 0.321569 0.176471 1
0.588235 0.321569 0.176471 1
0.588235 0.321569 0.176471 1
0.588235 0.321569 0.176471 1
0.588235 0.321569 0.176471 1
0.588235 0.321569 0.176471 1
0.588235 0.321569 0.176471 1
0.588235 0.321569 0.176471 1
0.588235 0.321569 0.176471 1
0.588235 0.321569 0.176471 1
0.588235 0.321569 0.176471 1
0.588235 0.321569 0.176471 1
0.588235 0.321569 0.176471 1
0.588235 0.321569 0.176471 1
0.588235 0.321569 0.176471 1
0.588235 0.321569 0.176471 1
0.588235 0.321569 0.176471 1
0.588235 0.321569 0.176471 1
0.588235 0.321569 0.176471 1
0.588235 0.321569 0.176471 1
0.588235 0.321569 0.176471 1
0.588235 0.321569 0.176471 1
0.588235 0.321569 0.176471 1
0.588235 0.321569 0.176471 1
0.588235 0.321569 0.176471 1
0.588235 0.321569 0.176471 1
0.588235 0.321569 0.176471 1
0.588235 0.321569 0.176471 1
0.588235 0.321569 0.176471 1
0.588235 0.321569 0.176471 1
0.588235 0.321569 0.176471 1
0.588235 0.321569 0.176471 1
0.588235 0.321569 0.176471 1
0.588235 0.321569 0.176471 1
0.588235 0.321569 0.176471 1
0.588235 0.321569 0.176471 1
0.588235 0.321569 0.176471 1
0.588235 0.321569 0.176471 1
0.588235 0.321569 0.176471 1
0.588235 0.321569 0.176471 1
0.588235 0.321569 0.176471 1
0.588235 0.321569 0.176471 1
0.588235 0.321569 0.176471 1
0.588235 0.321569 0.176471 1
0.588235 0.321569 0.176471 1
0.588235 0.321569 0.176471 1
0.588235 0.321569 0.176471 1
0.588235 0.321569 0.176471 1
0.588235 0.321569 0.176471 1
0.588235 0.321569 0.176471 1
0.588235 0.321569 0.176471 1
0.588235 0.321569 0.176471 1
0.588235 0.321569 0.176471 1
0.588235 0.321569 0.176471 1
0.588235 0.321569 0.176471 1
0.588235 0.321569 0.176471 1
0.588235 0.321569 0.176471 1
0.588235 0.321569 0.176471 1
0.588235 0.321569 0.176471 1
0.588235 0.321569 0.176471 1
0.588235 0.321569 0.176471 1
0.588235 0.321569 0.176471 1
0.588235 0.321569 0.176471 1
0.588235 0.321569 0.176471 1
0.588235 0.321569 0.176471 1
0.588235 0.321569 0.176471 1
0.588235 0.321569 0.176471 1
0.588235 0.321569 0.176471 1
0.588235 0.321569 0.176471 1
0.588235 0.321569 0.176471 1
0.588235 0.321569 0.176471 1
0.588235 0.321569 0.176471 1
0.588235 0.321569 0.176471 1
0.588235 0.321569 0.176471 1
0.588235 0.321569 0.176471 1
0.588235 0.321569 0.176471 1
0.588235 0.321569 0.176471 1
0.588235 0.321569 0.176471 1
0.588235 0.321569 0.176471 1
0.588235 0.321569 0.176471 1
0.588235 0.321569 0.176471 1
0.588235 0.321569 0.176471 1
0.588235 0.321569 0.176471 1
0.588235 0.321569 0.176471 1
0.588235 0.321569 0.176471 1
0.588235 0.321569 0.176471 1
0.588235 0.321569 0.176471 1
0.588235 0.321569 0.176471 1
0.588235 0.321569 0.176471 1
0.588235 0.321569 0.176471 1
0.588235 0.321569 0.176471 1
0.588235 0.321569 0.176471 1
0.588235 0.321569 0.176471 1
0.588235 0.321569 0.176471 1
0.588235 0.321569 0.176471 1
0.588235 0.321569 0.176471 1
0.588235 0.321569 0.176471 1
0.588235 0.321569 0.176471 1
0.588235 0.321569 0.176471 1
0.588235 0.321569 0.176471 1
0.588235 0.321569 0.176471 1
0.588235 0.321569 0.176471 1
0.588235 0.321569 0.176471 1
0.588235 0.321569 0.176471 1
0.588235 0.321569 0.176471 1
0.588235 0.321569 0.176471 1
0.588235 0.321569 0.176471 1
0.588235 0.321569 0.176471 1
0.588235 0.321569 0.176471 1
0.588235 0.321569 0.176471 1
0.588235 0.321569 0.176471 1
0.588235 0.321569 0.176471 1
0.588235 0.321569 0.176471 1
0.588235 0.321569 0.176471 1
0.588235 0.321569 0.176471 1
0.588235 0.321569 0.176471 1
0.588235 0.321569 0.176471 1
0.588235 0.321569 0.176471 1
0.588235 0.321569 0.176471 1
0.588235 0.321569 0.176471 1
0.588235 0.321569 0.176471 1
0.588235 0.321569 0.176471 1
0.588235 0.321569 0.176471 1
0.588235 0.321569 0.176471 1
0.588235 0.321569 0.176471 1
0.588235 0.321569 0.176471 1
0.588235 0.321569 0.176471 1
0.588235 0.321569 0.176471 1
0.588235 0.321569 0.176471 1
0.588235 0.321569 0.176471 1
0.588235 0.321569 0.176471 1
0.588235 0.321569 0.176471 1
0.588235 0.321569 0.176471 1
0.588235 0.321569 0.176471 1
0.588235 0.321569 0.176471 1
0.588235 0.321569 0.176471 1
0.588235 0.321569 0.176471 1
0.588235 0.321569 0.176471 1
0.588235 0.321569 0.176471 1
0.588235 0.321569 0.176471 1
0.588235 0.321569 0.176471 1
0.588235 0.321569 0.176471 1
0.588235 0.321569 0.176471 1
0.588235 0.321569 0.176471 1
0.588235 0.321569 0.176471 1
0.588235 0.321569 0.176471 1
0.588235 0.321569 0.176471 1
0.588235 0.321569 0.176471 1
0.588235 0.321569 0.176471 1
0.588235 0.321569 0.176471 1
0.588235 0.321569 0.176471 1
0.588235 0.321569 0.176471 1
0.588235 0.321569 0.176471 1
0.588235 0.321569 0.176471 1
0.588235 0.321569 0.176471 1
0.588235 0.321569 0.176471 1
0.588235 0.321569 0.176471 1
0.588235 0.321569 0.176471 1
0.588235 0.321569 0.176471 1
0.588235 0.321569 0.176471 1
0.588235 0.321569 0.176471 1
0.588235 0.321569 0.176471 1
0.588235 0.321569 0.176471 1
0.588235 0.321569 0.176471 1
0.588235 0.321569 0.176471 1
0.588235 0.321569 0.176471 1
0.588235 0.321569 0.176471 1
0.588235 0.321569 0.176471 1
0.588235 0.321569 0.176471 1
0.588235 0.321569 0.176471 1
0.588235 0.321569 0.176471 1
0.588235 0.321569 0.176471 1
0.588235 0.321569 0.176471 1
0.588235 0.321569 0.176471 1
0.588235 0.321569 0.176471 1
0.588235 0.321569 0.176471 1
0.588235 0.321569 0.176471 1
0.588235 0.321569 0.176471 1