# vtk DataFile Version 3.0
Gocad TSurf to VTK
ASCII
DATASET POLYDATA
POINTS 1203 float
21565142.172 4547050.629 -1000.000
21565042.188 4547334.570 -1500.000
21565042.188 4546962.656 -1500.000
21564697.656 4547292.453 -2000.000
21565121.797 4546459.637 -1000.000
21565142.172 4547417.449 -1000.000
21564430.828 4547589.313 -1500.000
21565196.219 4547397.023 -623.480
21565189.344 4547006.059 -600.064
21564938.094 4547602.188 -635.377
21565099.875 4547709.793 -294.076
21564490.047 4547662.000 -1000.000
21564552.063 4547716.152 -634.696
21564313.656 4548032.555 -1500.000
21564290.094 4547730.602 -2000.000
21564388.156 4548110.336 -1000.000
21564367.781 4548517.914 -1000.000
21564458.750 4548106.758 -642.006
21564429.844 4548513.395 -656.868
21564522.563 4548124.922 -286.936
21564632.703 4548843.980 -1000.000
21564699.500 4548829.430 -675.437
21564512.344 4548852.809 -1500.000
21565118.609 4549163.586 -1500.000
21564313.656 4548608.258 -1500.000
21564473.500 4548922.773 -2000.000
21564188.188 4548505.004 -2000.000
21564190.109 4547764.906 -2500.000
21564353.141 4547403.180 -2500.000
21564098.406 4548498.547 -2500.000
21564098.172 4547796.445 -2959.735
21564271.609 4548870.465 -2500.000
21564165.500 4548644.637 -2505.428
21564174.469 4548730.707 -2684.685
21564156.875 4548629.258 -2513.857
21564082.938 4548497.434 -2586.115
21564072.078 4548420.090 -2696.358
21564090.203 4547805.637 -2995.403
21564042.141 4548207.055 -3000.000
21564089.234 4547806.809 -3000.000
21564030.250 4548128.000 -3110.131
21564032.656 4548108.203 -3109.779
21564087.938 4547807.789 -3006.147
21564045.875 4547972.402 -3124.070
21564058.875 4547829.238 -3139.230
21564168.281 4548878.043 -2929.231
21564558.828 4549164.598 -3000.000
21564179.703 4548899.215 -3000.000
21564699.563 4549145.578 -2500.000
21564866.313 4549289.871 -3000.000
21565085.172 4549374.578 -2970.825
21564563.359 4549174.887 -3040.390
21564511.625 4549141.480 -3047.264
21564185.766 4548922.461 -3090.557
21565115.016 4549385.820 -2966.846
21565198.859 4549344.277 -2500.000
21565572.672 4549628.578 -2905.940
21564840.313 4549126.563 -2000.000
21565288.656 4549299.785 -2000.000
21565485.438 4549316.430 -1500.000
21565176.109 4549038.270 -683.291
21565635.094 4549493.383 -2000.000
21565794.938 4549731.477 -2500.000
21566083.438 4549941.719 -2000.000
21566142.656 4549892.133 -1500.000
21566024.219 4549991.309 -2500.000
21566541.969 4550257.594 -2000.000
21565917.469 4549954.430 -2860.281
21565982.563 4550026.184 -2851.677
21565689.016 4549702.563 -2890.478
21566314.609 4550205.285 -2500.000
21566077.516 4550093.805 -2839.067
21566671.234 4550424.359 -2500.000
21566786.500 4550400.250 -2000.000
21566489.828 4550368.547 -2784.284
21566550.703 4550460.730 -2776.278
21566337.500 4550278.934 -2804.543
21566674.875 4550648.836 -2759.994
21566768.047 4550857.414 -2500.000
21566722.438 4550856.723 -2754.000
21566857.844 4550858.773 -2000.000
21566947.625 4550860.137 -1500.000
21566936.172 4551484.066 -2500.000
21567051.438 4551521.094 -2000.000
21566882.297 4551466.762 -2733.691
21567152.156 4551669.473 -2697.938
21566793.938 4551146.270 -2744.945
21566754.016 4550984.641 -2750.000
21567369.219 4551815.227 -2500.000
21567233.094 4551815.965 -2687.366
21567428.438 4551694.313 -2000.000
21567873.594 4551494.258 -2500.000
21567227.844 4551680.391 -1500.000
21567008.766 4551181.105 -1500.000
21567764.688 4551480.336 -2000.000
21567655.797 4551466.410 -1500.000
21568090.766 4551164.461 -2000.000
21568602.156 4550724.953 -2500.000
21568144.906 4550992.598 -1500.000
21568467.781 4550756.883 -2000.000
21567546.891 4551452.488 -1000.000
21568199.031 4550820.738 -1000.000
21568773.469 4550410.438 -2000.000
21567525.313 4551353.211 -612.204
21567317.781 4551462.762 -611.419
21567950.438 4550828.828 -240.635
21568139.188 4550637.977 -263.237
21567572.906 4551196.754 -233.307
21567486.031 4551259.055 -222.837
21567774.688 4550884.926 146.375
21567851.906 4550806.848 135.383
21567585.906 4551068.887 150.040
21567598.906 4550941.020 533.386
21567508.688 4551146.961 161.032
21567564.594 4550975.719 538.271
21567530.266 4551010.422 543.157
21567495.953 4551045.121 548.042
21567460.563 4551055.371 551.184
21567348.625 4551121.578 165.744
21567425.188 4551065.621 554.325
21567406.141 4551024.773 552.574
21567387.109 4550983.922 550.822
21567285.688 4550892.582 159.550
21567262.531 4551157.117 -223.713
21567368.063 4550943.074 549.071
21567368.438 4550902.945 546.066
21567368.797 4550862.816 543.063
21567299.688 4550801.766 151.865
21567203.297 4550842.094 -229.971
21567369.172 4550822.688 540.058
21567387.109 4550781.855 535.820
21567313.141 4550771.141 148.686
21567405.047 4550741.020 531.581
21567422.984 4550700.188 527.342
21567440.922 4550659.352 523.104
21567348.406 4550551.895 139.149
21567458.859 4550618.520 518.865
21567461.750 4550571.094 515.150
21567352.750 4550480.758 133.575
21567237.953 4550485.273 -240.567
21567464.656 4550523.668 511.433
21567467.563 4550476.238 507.716
21567359.266 4550374.047 125.214
21567470.453 4550428.813 504.001
21567473.344 4550381.387 500.285
21567476.250 4550333.961 496.568
21567361.453 4550338.477 122.426
21567243.656 4550322.016 -253.072
21567470.281 4550292.012 493.855
21567464.297 4550250.063 491.144
21567458.313 4550208.113 488.432
21567334.734 4550186.922 112.232
21567452.344 4550166.164 485.719
21567440.625 4550131.891 482.976
21567428.906 4550097.617 477.585
21567325.938 4550161.219 108.189
21567191.438 4550143.184 -274.052
21567417.188 4550063.344 472.194
21567400.078 4550020.344 465.428
21567278.641 4550038.766 88.922
21567382.953 4549977.344 458.662
21567365.844 4549934.344 451.896
21567328.922 4549910.617 448.130
21567215.281 4549970.023 86.098
21567292.000 4549886.891 444.365
21567187.594 4549952.227 83.273
21567083.188 4550017.563 -277.818
21567255.094 4549863.164 440.599
21567218.172 4549839.438 436.833
21567132.219 4549916.637 77.625
21567009.375 4549970.109 -285.348
21567181.250 4549815.715 433.069
21567144.344 4549791.988 429.303
21567021.469 4549845.461 66.329
21567107.422 4549768.262 425.537
21567070.500 4549744.535 421.772
21567022.797 4549740.305 421.053
21566975.094 4549736.070 420.333
21566914.156 4549835.938 64.709
21566927.406 4549731.836 419.613
21566879.703 4549727.605 418.893
21566842.594 4549829.590 63.630
21566853.188 4549935.805 -290.913
21566832.000 4549723.375 418.174
21566784.297 4549719.141 417.454
21566775.859 4549823.422 62.585
21566743.016 4549715.148 416.779
21566701.750 4549711.160 416.106
21566660.469 4549707.168 415.431
21566627.344 4549797.055 61.573
21566594.219 4549886.945 -292.284
21566625.438 4549679.555 411.058
21566590.391 4549651.938 406.684
21566548.500 4549734.922 51.733
21566555.359 4549624.324 402.311
21566524.641 4549588.895 396.717
21566493.922 4549553.465 391.122
21566374.844 4549572.586 34.950
21566255.750 4549591.715 -321.988
21566463.203 4549518.031 385.527
21566432.484 4549482.602 379.933
21566401.766 4549447.172 374.338
21566328.750 4549519.445 26.519
21566371.047 4549411.742 368.692
21566340.328 4549376.313 362.788
21566282.688 4549466.297 17.017
21566309.609 4549340.883 356.023
21566278.891 4549305.449 350.638
21566134.703 4549306.164 11.059
21565988.703 4549309.523 -328.711
21566248.172 4549270.020 348.078
21566217.453 4549234.590 345.519
21566183.094 4549204.453 342.578
21566060.125 4549234.383 4.727
21566148.719 4549174.316 339.635
21566114.359 4549144.180 336.694
21566079.984 4549114.043 333.752
21565982.797 4549166.578 -1.892
21565856.578 4549213.086 -340.181
21566045.625 4549083.906 330.811
21566003.375 4549059.797 327.088
21565961.109 4549035.691 323.363
21565887.719 4549112.336 -10.271
21565918.844 4549011.586 319.638
21565876.594 4548987.477 315.915
21565834.703 4548976.074 312.120
21565684.484 4549029.480 -24.449
21565618.063 4549105.688 -353.428
21565792.797 4548964.672 308.324
21565750.906 4548953.270 304.530
21565709.016 4548941.867 300.735
21565667.109 4548930.465 296.939
21565550.188 4548988.051 -33.430
21565625.219 4548919.063 293.144
21565577.516 4548913.801 288.759
21565529.828 4548908.539 284.376
21565478.656 4548980.160 -40.007
21565482.125 4548903.281 279.991
21565434.422 4548898.020 275.606
21565386.734 4548892.758 271.223
21565371.328 4548968.320 -49.872
21565427.484 4549051.781 -364.389
21565339.031 4548887.496 266.838
21565177.406 4548925.918 -58.861
21565182.719 4548982.750 -370.965
21565291.328 4548882.234 262.453
21565243.641 4548876.973 258.070
21565195.938 4548871.715 254.852
21565148.234 4548866.453 260.245
21565105.859 4548918.023 -50.569
21565100.547 4548861.191 265.908
21565052.844 4548855.930 271.581
21564982.328 4548882.391 -32.376
21565013.844 4548841.844 277.776
21564974.844 4548827.762 283.970
21564935.844 4548813.676 290.165
21564833.063 4548800.328 -26.311
21564748.281 4548800.930 -346.830
21564899.859 4548785.777 298.252
21564863.875 4548757.879 306.340
21564827.891 4548729.980 314.427
21564725.109 4548716.633 -2.047
21564791.891 4548702.082 322.516
21564755.906 4548674.184 330.604
21564719.922 4548646.285 338.691
21564683.938 4548618.387 346.779
21564654.156 4548645.145 16.522
21564661.297 4548578.867 355.363
21564638.656 4548539.352 363.947
21564553.969 4548504.355 29.397
21564503.219 4548528.633 -318.026
21564616.031 4548499.836 372.529
21564593.391 4548460.316 381.114
21564596.563 4548411.355 388.585
21564599.734 4548362.395 396.055
21564569.500 4548197.438 60.970
21564602.906 4548313.434 403.526
21564616.422 4548269.953 409.076
21564629.938 4548226.469 414.627
21564589.766 4548132.211 69.596
21564643.453 4548182.984 420.280
21564656.969 4548139.504 426.128
21564599.906 4548099.602 73.981
21564670.500 4548096.023 431.975
21564684.016 4548052.539 437.823
21564697.531 4548009.055 443.672
21564645.656 4547922.289 82.754
21564711.047 4547965.574 449.520
21564724.563 4547922.094 455.368
21564827.172 4547778.336 94.890
21564600.547 4547813.789 -275.240
21564738.078 4547878.609 461.217
21564776.516 4547864.668 459.853
21564814.938 4547850.727 458.491
[...]
POINT_DATA 1203
COLOR_SCALARS GocadColor 4
0.25 0.25 0.25 1
0.25 0.25 0.25 1
0.25 0.25 0.25 1
0.25 0.25 0.25 1
0.25 0.25 0.25 1
0.25 0.25 0.25 1
0.25 0.25 0.25 1
0.25 0.25 0.25 1
0.25 0.25 0.25 1
0.25 0.25 0.25 1
0.25 0.25 0.25 1
0.25 0.25 0.25 1
0.25 0.25 0.25 1
0.25 0.25 0.25 1
0.25 0.25 0.25 1
0.25 0.25 0.25 1
0.25 0.25 0.25 1
0.25 0.25 0.25 1
0.25 0.25 0.25 1
0.25 0.25 0.25 1
0.25 0.25 0.25 1
0.25 0.25 0.25 1
0.25 0.25 0.25 1
0.25 0.25 0.25 1
0.25 0.25 0.25 1
0.25 0.25 0.25 1
0.25 0.25 0.25 1
0.25 0.25 0.25 1
0.25 0.25 0.25 1
0.25 0.25 0.25 1
0.25 0.25 0.25 1
0.25 0.25 0.25 1
0.25 0.25 0.25 1
0.25 0.25 0.25 1
0.25 0.25 0.25 1
0.25 0.25 0.25 1
0.25 0.25 0.25 1
0.25 0.25 0.25 1
0.25 0.25 0.25 1
0.25 0.25 0.25 1
0.25 0.25 0.25 1
0.25 0.25 0.25 1
0.25 0.25 0.25 1
0.25 0.25 0.25 1
0.25 0.25 0.25 1
0.25 0.25 0.25 1
0.25 0.25 0.25 1
0.25 0.25 0.25 1
0.25 0.25 0.25 1
0.25 0.25 0.25 1
0.25 0.25 0.25 1
0.25 0.25 0.25 1
0.25 0.25 0.25 1
0.25 0.25 0.25 1
0.25 0.25 0.25 1
0.25 0.25 0.25 1
0.25 0.25 0.25 1
0.25 0.25 0.25 1
0.25 0.25 0.25 1
0.25 0.25 0.25 1
0.25 0.25 0.25 1
0.25 0.25 0.25 1
0.25 0.25 0.25 1
0.25 0.25 0.25 1
0.25 0.25 0.25 1
0.25 0.25 0.25 1
0.25 0.25 0.25 1
0.25 0.25 0.25 1
0.25 0.25 0.25 1
0.25 0.25 0.25 1
0.25 0.25 0.25 1
0.25 0.25 0.25 1
0.25 0.25 0.25 1
0.25 0.25 0.25 1
0.25 0.25 0.25 1
0.25 0.25 0.25 1
0.25 0.25 0.25 1
0.25 0.25 0.25 1
0.25 0.25 0.25 1
0.25 0.25 0.25 1
0.25 0.25 0.25 1
0.25 0.25 0.25 1
0.25 0.25 0.25 1
0.25 0.25 0.25 1
0.25 0.25 0.25 1
0.25 0.25 0.25 1
0.25 0.25 0.25 1
0.25 0.25 0.25 1
0.25 0.25 0.25 1
0.25 0.25 0.25 1
0.25 0.25 0.25 1
0.25 0.25 0.25 1
0.25 0.25 0.25 1
0.25 0.25 0.25 1
0.25 0.25 0.25 1
0.25 0.25 0.25 1
0.25 0.25 0.25 1
0.25 0.25 0.25 1
0.25 0.25 0.25 1
0.25 0.25 0.25 1
0.25 0.25 0.25 1
0.25 0.25 0.25 1
0.25 0.25 0.25 1
0.25 0.25 0.25 1
0.25 0.25 0.25 1
0.25 0.25 0.25 1
0.25 0.25 0.25 1
0.25 0.25 0.25 1
0.25 0.25 0.25 1
0.25 0.25 0.25 1
0.25 0.25 0.25 1
0.25 0.25 0.25 1
0.25 0.25 0.25 1
0.25 0.25 0.25 1
0.25 0.25 0.25 1
0.25 0.25 0.25 1
0.25 0.25 0.25 1
0.25 0.25 0.25 1
0.25 0.25 0.25 1
0.25 0.25 0.25 1
0.25 0.25 0.25 1
0.25 0.25 0.25 1
0.25 0.25 0.25 1
0.25 0.25 0.25 1
0.25 0.25 0.25 1
0.25 0.25 0.25 1
0.25 0.25 0.25 1
0.25 0.25 0.25 1
0.25 0.25 0.25 1
0.25 0.25 0.25 1
0.25 0.25 0.25 1
0.25 0.25 0.25 1
0.25 0.25 0.25 1
0.25 0.25 0.25 1
0.25 0.25 0.25 1
0.25 0.25 0.25 1
0.25 0.25 0.25 1
0.25 0.25 0.25 1
0.25 0.25 0.25 1
0.25 0.25 0.25 1
0.25 0.25 0.25 1
0.25 0.25 0.25 1
0.25 0.25 0.25 1
0.25 0.25 0.25 1
0.25 0.25 0.25 1
0.25 0.25 0.25 1
0.25 0.25 0.25 1
0.25 0.25 0.25 1
0.25 0.25 0.25 1
0.25 0.25 0.25 1
0.25 0.25 0.25 1
0.25 0.25 0.25 1
0.25 0.25 0.25 1
0.25 0.25 0.25 1
0.25 0.25 0.25 1
0.25 0.25 0.25 1
0.25 0.25 0.25 1
0.25 0.25 0.25 1
0.25 0.25 0.25 1
0.25 0.25 0.25 1
0.25 0.25 0.25 1
0.25 0.25 0.25 1
0.25 0.25 0.25 1
0.25 0.25 0.25 1
0.25 0.25 0.25 1
0.25 0.25 0.25 1
0.25 0.25 0.25 1
0.25 0.25 0.25 1
0.25 0.25 0.25 1
0.25 0.25 0.25 1
0.25 0.25 0.25 1
0.25 0.25 0.25 1
0.25 0.25 0.25 1
0.25 0.25 0.25 1
0.25 0.25 0.25 1
0.25 0.25 0.25 1
0.25 0.25 0.25 1
0.25 0.25 0.25 1
0.25 0.25 0.25 1
0.25 0.25 0.25 1
0.25 0.25 0.25 1
0.25 0.25 0.25 1
0.25 0.25 0.25 1
0.25 0.25 0.25 1
0.25 0.25 0.25 1
0.25 0.25 0.25 1
0.25 0.25 0.25 1
0.25 0.25 0.25 1
0.25 0.25 0.25 1
0.25 0.25 0.25 1
0.25 0.25 0.25 1
0.25 0.25 0.25 1
0.25 0.25 0.25 1
0.25 0.25 0.25 1
0.25 0.25 0.25 1
0.25 0.25 0.25 1
0.25 0.25 0.25 1
0.25 0.25 0.25 1
0.25 0.25 0.25 1
0.25 0.25 0.25 1
0.25 0.25 0.25 1
0.25 0.25 0.25 1
0.25 0.25 0.25 1
0.25 0.25 0.25 1
0.25 0.25 0.25 1
0.25 0.25 0.25 1
0.25 0.25 0.25 1
0.25 0.25 0.25 1
0.25 0.25 0.25 1
0.25 0.25 0.25 1
0.25 0.25 0.25 1
0.25 0.25 0.25 1
0.25 0.25 0.25 1
0.25 0.25 0.25 1
0.25 0.25 0.25 1
0.25 0.25 0.25 1
0.25 0.25 0.25 1
0.25 0.25 0.25 1
0.25 0.25 0.25 1
0.25 0.25 0.25 1
0.25 0.25 0.25 1
0.25 0.25 0.25 1
0.25 0.25 0.25 1
0.25 0.25 0.25 1
0.25 0.25 0.25 1
0.25 0.25 0.25 1
0.25 0.25 0.25 1
0.25 0.25 0.25 1
0.25 0.25 0.25 1
0.25 0.25 0.25 1
0.25 0.25 0.25 1
0.25 0.25 0.25 1
0.25 0.25 0.25 1
0.25 0.25 0.25 1
0.25 0.25 0.25 1
0.25 0.25 0.25 1
0.25 0.25 0.25 1
0.25 0.25 0.25 1
0.25 0.25 0.25 1
0.25 0.25 0.25 1
0.25 0.25 0.25 1
0.25 0.25 0.25 1
0.25 0.25 0.25 1
0.25 0.25 0.25 1
0.25 0.25 0.25 1
0.25 0.25 0.25 1
0.25 0.25 0.25 1
0.25 0.25 0.25 1
0.25 0.25 0.25 1
0.25 0.25 0.25 1
0.25 0.25 0.25 1
0.25 0.25 0.25 1
0.25 0.25 0.25 1
0.25 0.25 0.25 1
0.25 0.25 0.25 1
0.25 0.25 0.25 1
0.25 0.25 0.25 1
0.25 0.25 0.25 1
0.25 0.25 0.25 1
0.25 0.25 0.25 1
0.25 0.25 0.25 1
0.25 0.25 0.25 1
0.25 0.25 0.25 1
0.25 0.25 0.25 1
0.25 0.25 0.25 1
0.25 0.25 0.25 1
0.25 0.25 0.25 1
0.25 0.25 0.25 1
0.25 0.25 0.25 1
0.25 0.25 0.25 1
0.25 0.25 0.25 1
0.25 0.25 0.25 1
0.25 0.25 0.25 1
0.25 0.25 0.25 1
0.25 0.25 0.25 1
0.25 0.25 0.25 1
0.25 0.25 0.25 1
0.25 0.25 0.25 1
0.25 0.25 0.25 1
0.25 0.25 0.25 1
0.25 0.25 0.25 1
0.25 0.25 0.25 1
0.25 0.25 0.25 1
0.25 0.25 0.25 1
0.25 0.25 0.25 1
0.25 0.25 0.25 1
0.25 0.25 0.25 1
0.25 0.25 0.25 1
0.25 0.25 0.25 1
0.25 0.25 0.25 1
0.25 0.25 0.25 1
0.25 0.25 0.25 1
0.25 0.25 0.25 1
0.25 0.25 0.25 1
0.25 0.25 0.25 1
0.25 0.25 0.25 1
0.25 0.25 0.25 1
0.25 0.25 0.25 1
0.25 0.25 0.25 1
0.25 0.25 0.25 1
0.25 0.25 0.25 1
0.25 0.25 0.25 1
0.25 0.25 0.25 1
0.25 0.25 0.25 1
0.25 0.25 0.25 1
0.25 0.25 0.25 1
0.25 0.25 0.25 1
0.25 0.25 0.25 1
0.25 0.25 0.25 1
0.25 0.25 0.25 1
0.25 0.25 0.25 1
0.25 0.25 0.25 1
0.25 0.25 0.25 1
0.25 0.25 0.25 1
0.25 0.25 0.25 1
0.25 0.25 0.25 1
0.25 0.25 0.25 1
0.25 0.25 0.25 1
0.25 0.25 0.25 1
0.25 0.25 0.25 1
0.25 0.25 0.25 1
0.25 0.25 0.25 1
0.25 0.25 0.25 1
0.25 0.25 0.25 1
0.25 0.25 0.25 1
0.25 0.25 0.25 1
0.25 0.25 0.25 1
0.25 0.25 0.25 1
0.25 0.25 0.25 1
0.25 0.25 0.25 1
0.25 0.25 0.25 1
0.25 0.25 0.25 1
0.25 0.25 0.25 1
0.25 0.25 0.25 1
0.25 0.25 0.25 1
0.25 0.25 0.25 1
0.25 0.25 0.25 1
0.25 0.25 0.25 1
0.25 0.25 0.25 1
0.25 0.25 0.25 1
0.25 0.25 0.25 1
0.25 0.25 0.25 1
0.25 0.25 0.25 1
0.25 0.25 0.25 1
0.25 0.25 0.25 1
0.25 0.25 0.25 1
0.25 0.25 0.25 1
0.25 0.25 0.25 1
0.25 0.25 0.25 1
0.25 0.25 0.25 1
0.25 0.25 0.25 1
0.25 0.25 0.25 1
0.25 0.25 0.25 1
0.25 0.25 0.25 1
0.25 0.25 0.25 1
0.25 0.25 0.25 1
0.25 0.25 0.25 1
0.25 0.25 0.25 1
0.25 0.25 0.25 1
0.25 0.25 0.25 1
0.25 0.25 0.25 1
0.25 0.25 0.25 1
0.25 0.25 0.25 1
0.25 0.25 0.25 1
0.25 0.25 0.25 1
0.25 0.25 0.25 1
0.25 0.25 0.25 1
0.25 0.25 0.25 1
0.25 0.25 0.25 1
0.25 0.25 0.25 1
0.25 0.25 0.25 1
0.25 0.25 0.25 1
0.25 0.25 0.25 1
0.25 0.25 0.25 1
0.25 0.25 0.25 1
0.25 0.25 0.25 1
0.25 0.25 0.25 1
0.25 0.25 0.25 1
0.25 0.25 0.25 1
0.25 0.25 0.25 1
0.25 0.25 0.25 1
0.25 0.25 0.25 1
0.25 0.25 0.25 1
0.25 0.25 0.25 1
0.25 0.25 0.25 1
0.25 0.25 0.25 1
0.25 0.25 0.25 1
0.25 0.25 0.25 1
0.25 0.25 0.25 1
0.25 0.25 0.25 1
0.25 0.25 0.25 1
0.25 0.25 0.25 1
0.25 0.25 0.25 1
0.25 0.25 0.25 1
0.25 0.25 0.25 1
0.25 0.25 0.25 1
0.25 0.25 0.25 1
0.25 0.25 0.25 1
0.25 0.25 0.25 1
0.25 0.25 0.25 1
0.25 0.25 0.25 1
0.25 0.25 0.25 1
0.25 0.25 0.25 1
0.25 0.25 0.25 1
0.25 0.25 0.25 1
0.25 0.25 0.25 1
0.25 0.25 0.25 1
0.25 0.25 0.25 1
0.25 0.25 0.25 1
0.25 0.25 0.25 1
0.25 0.25 0.25 1
0.25 0.25 0.25 1
0.25 0.25 0.25 1
0.25 0.25 0.25 1
0.25 0.25 0.25 1
0.25 0.25 0.25 1
0.25 0.25 0.25 1
0.25 0.25 0.25 1
0.25 0.25 0.25 1
0.25 0.25 0.25 1
0.25 0.25 0.25 1
0.25 0.25 0.25 1
0.25 0.25 0.25 1
0.25 0.25 0.25 1
0.25 0.25 0.25 1
0.25 0.25 0.25 1
0.25 0.25 0.25 1
0.25 0.25 0.25 1
0.25 0.25 0.25 1
0.25 0.25 0.25 1
0.25 0.25 0.25 1
0.25 0.25 0.25 1
0.25 0.25 0.25 1
0.25 0.25 0.25 1
0.25 0.25 0.25 1
0.25 0.25 0.25 1
0.25 0.25 0.25 1
0.25 0.25 0.25 1
0.25 0.25 0.25 1
0.25 0.25 0.25 1
0.25 0.25 0.25 1
0.25 0.25 0.25 1
0.25 0.25 0.25 1
0.25 0.25 0.25 1
0.25 0.25 0.25 1
0.25 0.25 0.25 1
0.25 0.25 0.25 1
0.25 0.25 0.25 1
0.25 0.25 0.25 1
0.25 0.25 0.25 1
0.25 0.25 0.25 1
0.25 0.25 0.25 1
0.25 0.25 0.25 1
0.25 0.25 0.25 1
0.25 0.25 0.25 1
0.25 0.25 0.25 1
0.25 0.25 0.25 1
0.25 0.25 0.25 1
0.25 0.25 0.25 1
0.25 0.25 0.25 1
0.25 0.25 0.25 1
0.25 0.25 0.25 1
0.25 0.25 0.25 1
0.25 0.25 0.25 1
0.25 0.25 0.25 1
0.25 0.25 0.25 1
0.25 0.25 0.25 1
0.25 0.25 0.25 1
0.25 0.25 0.25 1
0.25 0.25 0.25 1
0.25 0.25 0.25 1
0.25 0.25 0.25 1
0.25 0.25 0.25 1
0.25 0.25 0.25 1
0.25 0.25 0.25 1
0.25 0.25 0.25 1
0.25 0.25 0.25 1
0.25 0.25 0.25 1
0.25 0.25 0.25 1
0.25 0.25 0.25 1
0.25 0.25 0.25 1
0.25 0.25 0.25 1
0.25 0.25 0.25 1
0.25 0.25 0.25 1
0.25 0.25 0.25 1
0.25 0.25 0.25 1
0.25 0.25 0.25 1
0.25 0.25 0.25 1
0.25 0.25 0.25 1
0.25 0.25 0.25 1
0.25 0.25 0.25 1
0.25 0.25 0.25 1
0.25 0.25 0.25 1
0.25 0.25 0.25 1
0.25 0.25 0.25 1
0.25 0.25 0.25 1
0.25 0.25 0.25 1
0.25 0.25 0.25 1
0.25 0.25 0.25 1
0.25 0.25 0.25 1
0.25 0.25 0.25 1
0.25 0.25 0.25 1
0.25 0.25 0.25 1
0.25 0.25 0.25 1
0.25 0.25 0.25 1
0.25 0.25 0.25 1
0.25 0.25 0.25 1
0.25 0.25 0.25 1
0.25 0.25 0.25 1
0.25 0.25 0.25 1
0.25 0.25 0.25 1
0.25 0.25 0.25 1
0.25 0.25 0.25 1
0.25 0.25 0.25 1
0.25 0.25 0.25 1
0.25 0.25 0.25 1
0.25 0.25 0.25 1
0.25 0.25 0.25 1
0.25 0.25 0.25 1
0.25 0.25 0.25 1
0.25 0.25 0.25 1
0.25 0.25 0.25 1
0.25 0.25 0.25 1
0.25 0.25 0.25 1
0.25 0.25 0.25 1
0.25 0.25 0.25 1
0.25 0.25 0.25 1
0.25 0.25 0.25 1
0.25 0.25 0.25 1
0.25 0.25 0.25 1
0.25 0.25 0.25 1
0.25 0.25 0.25 1
0.25 0.25 0.25 1
0.25 0.25 0.25 1
0.25 0.25 0.25 1
0.25 0.25 0.25 1
0.25 0.25 0.25 1
0.25 0.25 0.25 1
0.25 0.25 0.25 1
0.25 0.25 0.25 1
0.25 0.25 0.25 1
0.25 0.25 0.25 1
0.25 0.25 0.25 1
0.25 0.25 0.25 1
0.25 0.25 0.25 1
0.25 0.25 0.25 1
0.25 0.25 0.25 1
0.25 0.25 0.25 1
0.25 0.25 0.25 1
0.25 0.25 0.25 1
0.25 0.25 0.25 1
0.25 0.25 0.25 1
0.25 0.25 0.25 1
0.25 0.25 0.25 1
0.25 0.25 0.25 1
0.25 0.25 0.25 1
0.25 0.25 0.25 1
0.25 0.25 0.25 1
0.25 0.25 0.25 1
0.25 0.25 0.25 1
0.25 0.25 0.25 1
0.25 0.25 0.25 1
0.25 0.25 0.25 1
0.25 0.25 0.25 1
0.25 0.25 0.25 1
0.25 0.25 0.25 1
0.25 0.25 0.25 1
0.25 0.25 0.25 1
0.25 0.25 0.25 1
0.25 0.25 0.25 1
0.25 0.25 0.25 1
0.25 0.25 0.25 1
0.25 0.25 0.25 1
0.25 0.25 0.25 1
0.25 0.25 0.25 1
0.25 0.25 0.25 1
0.25 0.25 0.25 1
0.25 0.25 0.25 1
0.25 0.25 0.25 1
0.25 0.25 0.25 1
0.25 0.25 0.25 1
0.25 0.25 0.25 1
0.25 0.25 0.25 1
0.25 0.25 0.25 1
0.25 0.25 0.25 1
0.25 0.25 0.25 1
0.25 0.25 0.25 1
0.25 0.25 0.25 1
0.25 0.25 0.25 1
0.25 0.25 0.25 1
0.25 0.25 0.25 1
0.25 0.25 0.25 1
0.25 0.25 0.25 1
0.25 0.25 0.25 1
0.25 0.25 0.25 1
0.25 0.25 0.25 1
0.25 0.25 0.25 1
0.25 0.25 0.25 1
0.25 0.25 0.25 1
0.25 0.25 0.25 1
0.25 0.25 0.25 1
0.25 0.25 0.25 1
0.25 0.25 0.25 1
0.25 0.25 0.25 1
0.25 0.25 0.25 1
0.25 0.25 0.25 1
0.25 0.25 0.25 1
0.25 0.25 0.25 1
0.25 0.25 0.25 1
0.25 0.25 0.25 1
0.25 0.25 0.25 1
0.25 0.25 0.25 1
0.25 0.25 0.25 1
0.25 0.25 0.25 1
0.25 0.25 0.25 1
0.25 0.25 0.25 1
0.25 0.25 0.25 1
0.25 0.25 0.25 1
0.25 0.25 0.25 1
0.25 0.25 0.25 1
0.25 0.25 0.25 1
0.25 0.25 0.25 1
0.25 0.25 0.25 1
0.25 0.25 0.25 1
0.25 0.25 0.25 1
0.25 0.25 0.25 1
0.25 0.25 0.25 1
0.25 0.25 0.25 1
0.25 0.25 0.25 1
0.25 0.25 0.25 1
0.25 0.25 0.25 1
0.25 0.25 0.25 1
0.25 0.25 0.25 1
0.25 0.25 0.25 1
0.25 0.25 0.25 1
0.25 0.25 0.25 1
0.25 0.25 0.25 1
0.25 0.25 0.25 1
0.25 0.25 0.25 1
0.25 0.25 0.25 1
0.25 0.25 0.25 1
0.25 0.25 0.25 1
0.25 0.25 0.25 1
0.25 0.25 0.25 1
0.25 0.25 0.25 1
0.25 0.25 0.25 1
0.25 0.25 0.25 1
0.25 0.25 0.25 1
0.25 0.25 0.25 1
0.25 0.25 0.25 1
0.25 0.25 0.25 1
0.25 0.25 0.25 1
0.25 0.25 0.25 1
0.25 0.25 0.25 1
0.25 0.25 0.25 1
0.25 0.25 0.25 1
0.25 0.25 0.25 1
0.25 0.25 0.25 1
0.25 0.25 0.25 1
0.25 0.25 0.25 1
0.25 0.25 0.25 1
0.25 0.25 0.25 1
0.25 0.25 0.25 1
0.25 0.25 0.25 1
0.25 0.25 0.25 1
0.25 0.25 0.25 1
0.25 0.25 0.25 1
0.25 0.25 0.25 1
0.25 0.25 0.25 1
0.25 0.25 0.25 1
0.25 0.25 0.25 1
0.25 0.25 0.25 1
0.25 0.25 0.25 1
0.25 0.25 0.25 1
0.25 0.25 0.25 1
0.25 0.25 0.25 1
0.25 0.25 0.25 1
0.25 0.25 0.25 1
0.25 0.25 0.25 1
0.25 0.25 0.25 1
0.25 0.25 0.25 1
0.25 0.25 0.25 1
0.25 0.25 0.25 1
0.25 0.25 0.25 1
0.25 0.25 0.25 1
0.25 0.25 0.25 1
0.25 0.25 0.25 1
0.25 0.25 0.25 1
0.25 0.25 0.25 1
0.25 0.25 0.25 1
0.25 0.25 0.25 1
0.25 0.25 0.25 1
0.25 0.25 0.25 1
0.25 0.25 0.25 1
0.25 0.25 0.25 1
0.25 0.25 0.25 1
0.25 0.25 0.25 1
0.25 0.25 0.25 1
0.25 0.25 0.25 1
0.25 0.25 0.25 1
0.25 0.25 0.25 1
0.25 0.25 0.25 1
0.25 0.25 0.25 1
0.25 0.25 0.25 1
0.25 0.25 0.25 1
0.25 0.25 0.25 1
0.25 0.25 0.25 1
0.25 0.25 0.25 1
0.25 0.25 0.25 1
0.25 0.25 0.25 1
0.25 0.25 0.25 1
0.25 0.25 0.25 1
0.25 0.25 0.25 1
0.25 0.25 0.25 1
0.25 0.25 0.25 1
0.25 0.25 0.25 1
0.25 0.25 0.25 1
0.25 0.25 0.25 1
0.25 0.25 0.25 1
0.25 0.25 0.25 1
0.25 0.25 0.25 1
0.25 0.25 0.25 1
0.25 0.25 0.25 1
0.25 0.25 0.25 1
0.25 0.25 0.25 1
0.25 0.25 0.25 1
0.25 0.25 0.25 1
0.25 0.25 0.25 1
0.25 0.25 0.25 1
0.25 0.25 0.25 1
0.25 0.25 0.25 1
0.25 0.25 0.25 1
0.25 0.25 0.25 1
0.25 0.25 0.25 1
0.25 0.25 0.25 1
0.25 0.25 0.25 1
0.25 0.25 0.25 1
0.25 0.25 0.25 1
0.25 0.25 0.25 1
0.25 0.25 0.25 1
0.25 0.25 0.25 1
0.25 0.25 0.25 1
0.25 0.25 0.25 1
0.25 0.25 0.25 1
0.25 0.25 0.25 1
0.25 0.25 0.25 1
0.25 0.25 0.25 1
0.25 0.25 0.25 1
0.25 0.25 0.25 1
0.25 0.25 0.25 1
0.25 0.25 0.25 1
0.25 0.25 0.25 1
0.25 0.25 0.25 1
0.25 0.25 0.25 1
0.25 0.25 0.25 1
0.25 0.25 0.25 1
0.25 0.25 0.25 1
0.25 0.25 0.25 1
0.25 0.25 0.25 1
0.25 0.25 0.25 1
0.25 0.25 0.25 1
0.25 0.25 0.25 1
0.25 0.25 0.25 1
0.25 0.25 0.25 1
0.25 0.25 0.25 1
0.25 0.25 0.25 1
0.25 0.25 0.25 1
0.25 0.25 0.25 1
0.25 0.25 0.25 1
0.25 0.25 0.25 1
0.25 0.25 0.25 1
0.25 0.25 0.25 1
0.25 0.25 0.25 1
0.25 0.25 0.25 1
0.25 0.25 0.25 1
0.25 0.25 0.25 1
0.25 0.25 0.25 1
0.25 0.25 0.25 1
0.25 0.25 0.25 1
0.25 0.25 0.25 1
0.25 0.25 0.25 1
0.25 0.25 0.25 1
0.25 0.25 0.25 1
0.25 0.25 0.25 1
0.25 0.25 0.25 1
0.25 0.25 0.25 1
0.25 0.25 0.25 1
0.25 0.25 0.25 1
0.25 0.25 0.25 1
0.25 0.25 0.25 1
0.25 0.25 0.25 1
0.25 0.25 0.25 1
0.25 0.25 0.25 1
0.25 0.25 0.25 1
0.25 0.25 0.25 1
0.25 0.25 0.25 1
0.25 0.25 0.25 1
0.25 0.25 0.25 1
0.25 0.25 0.25 1
0.25 0.25 0.25 1
0.25 0.25 0.25 1
0.25 0.25 0.25 1
0.25 0.25 0.25 1
0.25 0.25 0.25 1
0.25 0.25 0.25 1
0.25 0.25 0.25 1
0.25 0.25 0.25 1
0.25 0.25 0.25 1
0.25 0.25 0.25 1
0.25 0.25 0.25 1
0.25 0.25 0.25 1
0.25 0.25 0.25 1
0.25 0.25 0.25 1
0.25 0.25 0.25 1
0.25 0.25 0.25 1
0.25 0.25 0.25 1
0.25 0.25 0.25 1
0.25 0.25 0.25 1
0.25 0.25 0.25 1
0.25 0.25 0.25 1
0.25 0.25 0.25 1
0.25 0.25 0.25 1
0.25 0.25 0.25 1
0.25 0.25 0.25 1
0.25 0.25 0.25 1
0.25 0.25 0.25 1
0.25 0.25 0.25 1
0.25 0.25 0.25 1
0.25 0.25 0.25 1
0.25 0.25 0.25 1
0.25 0.25 0.25 1
0.25 0.25 0.25 1
0.25 0.25 0.25 1
0.25 0.25 0.25 1
0.25 0.25 0.25 1
0.25 0.25 0.25 1
0.25 0.25 0.25 1
0.25 0.25 0.25 1
0.25 0.25 0.25 1
0.25 0.25 0.25 1
0.25 0.25 0.25 1
0.25 0.25 0.25 1
0.25 0.25 0.25 1
0.25 0.25 0.25 1
0.25 0.25 0.25 1
0.25 0.25 0.25 1
0.25 0.25 0.25 1
0.25 0.25 0.25 1
0.25 0.25 0.25 1
0.25 0.25 0.25 1
0.25 0.25 0.25 1
0.25 0.25 0.25 1
0.25 0.25 0.25 1
0.25 0.25 0.25 1
0.25 0.25 0.25 1
0.25 0.25 0.25 1
0.25 0.25 0.25 1
0.25 0.25 0.25 1
0.25 0.25 0.25 1
0.25 0.25 0.25 1
0.25 0.25 0.25 1
0.25 0.25 0.25 1
0.25 0.25 0.25 1
0.25 0.25 0.25 1
0.25 0.25 0.25 1
0.25 0.25 0.25 1
0.25 0.25 0.25 1
0.25 0.25 0.25 1
0.25 0.25 0.25 1
0.25 0.25 0.25 1
0.25 0.25 0.25 1
0.25 0.25 0.25 1
0.25 0.25 0.25 1
0.25 0.25 0.25 1
0.25 0.25 0.25 1
0.25 0.25 0.25 1
0.25 0.25 0.25 1
0.25 0.25 0.25 1
0.25 0.25 0.25 1
0.25 0.25 0.25 1
0.25 0.25 0.25 1
0.25 0.25 0.25 1
0.25 0.25 0.25 1
0.25 0.25 0.25 1
0.25 0.25 0.25 1
0.25 0.25 0.25 1
0.25 0.25 0.25 1
0.25 0.25 0.25 1
0.25 0.25 0.25 1
0.25 0.25 0.25 1
0.25 0.25 0.25 1
0.25 0.25 0.25 1
0.25 0.25 0.25 1
0.25 0.25 0.25 1
0.25 0.25 0.25 1
0.25 0.25 0.25 1
0.25 0.25 0.25 1
0.25 0.25 0.25 1
0.25 0.25 0.25 1
0.25 0.25 0.25 1
0.25 0.25 0.25 1
0.25 0.25 0.25 1
0.25 0.25 0.25 1
0.25 0.25 0.25 1
0.25 0.25 0.25 1
0.25 0.25 0.25 1
0.25 0.25 0.25 1
0.25 0.25 0.25 1
0.25 0.25 0.25 1
0.25 0.25 0.25 1
0.25 0.25 0.25 1
0.25 0.25 0.25 1
0.25 0.25 0.25 1
0.25 0.25 0.25 1
0.25 0.25 0.25 1
0.25 0.25 0.25 1
0.25 0.25 0.25 1
0.25 0.25 0.25 1
0.25 0.25 0.25 1
0.25 0.25 0.25 1
0.25 0.25 0.25 1
0.25 0.25 0.25 1
0.25 0.25 0.25 1
0.25 0.25 0.25 1
0.25 0.25 0.25 1
0.25 0.25 0.25 1
0.25 0.25 0.25 1
0.25 0.25 0.25 1
0.25 0.25 0.25 1
0.25 0.25 0.25 1
0.25 0.25 0.25 1
0.25 0.25 0.25 1
0.25 0.25 0.25 1
0.25 0.25 0.25 1
0.25 0.25 0.25 1
0.25 0.25 0.25 1
0.25 0.25 0.25 1
0.25 0.25 0.25 1
0.25 0.25 0.25 1
0.25 0.25 0.25 1
0.25 0.25 0.25 1
0.25 0.25 0.25 1
0.25 0.25 0.25 1
0.25 0.25 0.25 1
0.25 0.25 0.25 1
0.25 0.25 0.25 1
0.25 0.25 0.25 1
0.25 0.25 0.25 1
0.25 0.25 0.25 1
0.25 0.25 0.25 1
0.25 0.25 0.25 1
0.25 0.25 0.25 1
0.25 0.25 0.25 1
0.25 0.25 0.25 1
0.25 0.25 0.25 1
0.25 0.25 0.25 1
0.25 0.25 0.25 1
0.25 0.25 0.25 1
0.25 0.25 0.25 1
0.25 0.25 0.25 1
0.25 0.25 0.25 1
0.25 0.25 0.25 1
0.25 0.25 0.25 1
0.25 0.25 0.25 1
0.25 0.25 0.25 1
0.25 0.25 0.25 1
0.25 0.25 0.25 1
0.25 0.25 0.25 1
0.25 0.25 0.25 1
0.25 0.25 0.25 1
0.25 0.25 0.25 1
0.25 0.25 0.25 1
0.25 0.25 0.25 1
0.25 0.25 0.25 1
0.25 0.25 0.25 1
0.25 0.25 0.25 1
0.25 0.25 0.25 1
0.25 0.25 0.25 1
0.25 0.25 0.25 1
0.25 0.25 0.25 1
0.25 0.25 0.25 1
0.25 0.25 0.25 1
0.25 0.25 0.25 1
0.25 0.25 0.25 1
0.25 0.25 0.25 1
0.25 0.25 0.25 1
0.25 0.25 0.25 1
0.25 0.25 0.25 1
0.25 0.25 0.25 1
0.25 0.25 0.25 1
0.25 0.25 0.25 1
0.25 0.25 0.25 1
0.25 0.25 0.25 1
0.25 0.25 0.25 1
0.25 0.25 0.25 1
0.25 0.25 0.25 1
0.25 0.25 0.25 1
0.25 0.25 0.25 1
0.25 0.25 0.25 1
0.25 0.25 0.25 1
0.25 0.25 0.25 1
0.25 0.25 0.25 1
0.25 0.25 0.25 1
0.25 0.25 0.25 1
0.25 0.25 0.25 1
0.25 0.25 0.25 1
0.25 0.25 0.25 1
0.25 0.25 0.25 1
0.25 0.25 0.25 1
0.25 0.25 0.25 1
0.25 0.25 0.25 1
0.25 0.25 0.25 1
0.25 0.25 0.25 1
0.25 0.25 0.25 1
0.25 0.25 0.25 1
0.25 0.25 0.25 1
0.25 0.25 0.25 1
0.25 0.25 0.25 1
0.25 0.25 0.25 1
0.25 0.25 0.25 1
0.25 0.25 0.25 1
0.25 0.25 0.25 1
0.25 0.25 0.25 1
0.25 0.25 0.25 1
0.25 0.25 0.25 1
0.25 0.25 0.25 1
0.25 0.25 0.25 1
0.25 0.25 0.25 1
0.25 0.25 0.25 1
0.25 0.25 0.25 1
0.25 0.25 0.25 1
0.25 0.25 0.25 1
0.25 0.25 0.25 1
0.25 0.25 0.25 1
0.25 0.25 0.25 1
0.25 0.25 0.25 1
0.25 0.25 0.25 1
0.25 0.25 0.25 1
0.25 0.25 0.25 1
0.25 0.25 0.25 1
0.25 0.25 0.25 1
0.25 0.25 0.25 1
0.25 0.25 0.25 1
0.25 0.25 0.25 1
0.25 0.25 0.25 1
0.25 0.25 0.25 1
0.25 0.25 0.25 1
0.25 0.25 0.25 1
0.25 0.25 0.25 1
0.25 0.25 0.25 1
0.25 0.25 0.25 1
0.25 0.25 0.25 1
0.25 0.25 0.25 1
0.25 0.25 0.25 1
0.25 0.25 0.25 1
0.25 0.25 0.25 1
0.25 0.25 0.25 1
0.25 0.25 0.25 1
0.25 0.25 0.25 1
0.25 0.25 0.25 1
0.25 0.25 0.25 1
0.25 0.25 0.25 1
0.25 0.25 0.25 1
0.25 0.25 0.25 1
0.25 0.25 0.25 1
0.25 0.25 0.25 1
0.25 0.25 0.25 1
0.25 0.25 0.25 1
0.25 0.25 0.25 1
0.25 0.25 0.25 1
0.25 0.25 0.25 1
0.25 0.25 0.25 1
0.25 0.25 0.25 1
0.25 0.25 0.25 1
0.25 0.25 0.25 1
0.25 0.25 0.25 1
0.25 0.25 0.25 1
0.25 0.25 0.25 1
0.25 0.25 0.25 1
0.25 0.25 0.25 1
0.25 0.25 0.25 1
0.25 0.25 0.25 1
0.25 0.25 0.25 1
0.25 0.25 0.25 1
0.25 0.25 0.25 1
0.25 0.25 0.25 1
0.25 0.25 0.25 1
0.25 0.25 0.25 1
0.25 0.25 0.25 1
0.25 0.25 0.25 1
0.25 0.25 0.25 1
0.25 0.25 0.25 1
0.25 0.25 0.25 1
0.25 0.25 0.25 1
0.25 0.25 0.25 1
0.25 0.25 0.25 1
0.25 0.25 0.25 1
0.25 0.25 0.25 1
0.25 0.25 0.25 1
0.25 0.25 0.25 1
0.25 0.25 0.25 1
0.25 0.25 0.25 1
0.25 0.25 0.25 1
0.25 0.25 0.25 1
0.25 0.25 0.25 1
0.25 0.25 0.25 1
0.25 0.25 0.25 1
0.25 0.25 0.25 1
0.25 0.25 0.25 1
0.25 0.25 0.25 1
0.25 0.25 0.25 1
0.25 0.25 0.25 1
0.25 0.25 0.25 1
0.25 0.25 0.25 1
0.25 0.25 0.25 1
0.25 0.25 0.25 1
0.25 0.25 0.25 1
0.25 0.25 0.25 1
0.25 0.25 0.25 1
0.25 0.25 0.25 1
0.25 0.25 0.25 1
0.25 0.25 0.25 1
0.25 0.25 0.25 1
0.25 0.25 0.25 1
0.25 0.25 0.25 1
0.25 0.25 0.25 1
0.25 0.25 0.25 1
0.25 0.25 0.25 1
0.25 0.25 0.25 1
0.25 0.25 0.25 1
0.25 0.25 0.25 1
0.25 0.25 0.25 1
0.25 0.25 0.25 1
0.25 0.25 0.25 1
0.25 0.25 0.25 1
0.25 0.25 0.25 1
0.25 0.25 0.25 1
0.25 0.25 0.25 1
0.25 0.25 0.25 1
0.25 0.25 0.25 1
0.25 0.25 0.25 1
0.25 0.25 0.25 1
0.25 0.25 0.25 1
0.25 0.25 0.25 1
0.25 0.25 0.25 1
0.25 0.25 0.25 1
0.25 0.25 0.25 1
0.25 0.25 0.25 1
0.25 0.25 0.25 1
0.25 0.25 0.25 1
0.25 0.25 0.25 1
0.25 0.25 0.25 1
0.25 0.25 0.25 1
0.25 0.25 0.25 1
0.25 0.25 0.25 1
0.25 0.25 0.25 1
0.25 0.25 0.25 1
0.25 0.25 0.25 1
0.25 0.25 0.25 1
0.25 0.25 0.25 1
0.25 0.25 0.25 1
0.25 0.25 0.25 1
0.25 0.25 0.25 1
0.25 0.25 0.25 1
0.25 0.25 0.25 1
0.25 0.25 0.25 1
0.25 0.25 0.25 1
0.25 0.25 0.25 1
0.25 0.25 0.25 1
0.25 0.25 0.25 1
0.25 0.25 0.25 1
0.25 0.25 0.25 1
0.25 0.25 0.25 1