# vtk DataFile Version 3.0
Gocad TSurf to VTK
ASCII
DATASET POLYDATA
POINTS 7807 float
21622534.828 4593988.492 522.433
21622551.406 4593944.367 522.938
21623599.508 4593744.516 -83.175
21623636.813 4593645.234 -82.038
21622518.250 4594032.625 521.882
21622501.672 4594076.758 521.055
21623537.336 4593910.008 -86.068
21623704.000 4593720.570 -142.612
21622485.094 4594120.883 520.229
21622468.508 4594165.016 519.403
21622451.930 4594209.141 518.577
21623524.898 4593943.109 -86.687
21623704.000 4593849.445 -175.211
21622435.352 4594253.273 517.751
21622422.828 4594300.055 517.198
21622410.313 4594346.836 516.646
21623496.727 4594048.359 -87.930
21623704.000 4593899.313 -187.292
21622397.789 4594393.617 516.093
21622385.266 4594440.391 515.541
21623477.945 4594118.531 -88.759
21623704.000 4593979.227 -201.159
21622372.742 4594487.172 514.988
21622360.219 4594533.953 514.436
21622347.703 4594580.734 513.883
21623407.391 4594305.258 -92.280
21623704.000 4594066.375 -218.238
21622335.180 4594627.516 513.331
21622316.344 4594663.727 512.318
21622297.508 4594699.930 511.306
21622278.672 4594736.141 510.293
21623315.781 4594248.398 -98.444
21623704.000 4594129.414 -288.178
21622237.953 4594710.867 507.553
21622197.242 4594685.602 504.814
21622156.523 4594660.328 502.074
21623285.250 4594229.445 -100.499
21623704.000 4594081.820 -316.716
21622115.813 4594635.063 499.335
21622075.094 4594609.789 496.595
21622034.383 4594584.523 493.856
21621993.664 4594559.250 491.116
21623102.031 4594115.734 -112.827
21623704.000 4594061.875 -328.675
21621952.953 4594533.984 488.377
21621912.234 4594508.711 485.637
21621871.523 4594483.445 482.898
21623071.492 4594096.781 -114.881
21623704.000 4593962.016 -388.562
21621830.805 4594458.172 480.158
21621790.094 4594432.906 477.419
21621749.375 4594407.633 474.679
21622949.344 4594020.969 -123.100
21623704.000 4593823.016 -471.922
21621708.664 4594382.367 471.940
21621667.945 4594357.094 469.200
21622918.813 4594002.023 -125.154
21623704.000 4593714.648 -536.905
21621627.234 4594331.828 466.461
21621586.516 4594306.555 463.721
21622797.859 4593926.953 -133.293
21623704.000 4593705.039 -542.671
21621545.805 4594281.289 460.982
21621505.086 4594256.016 458.242
21621465.961 4594231.734 455.610
21622768.516 4593908.734 -135.267
21623704.000 4593671.547 -562.756
21621426.844 4594207.445 452.978
21621387.719 4594183.164 450.345
21621348.594 4594158.875 447.713
21622651.148 4593835.875 -143.122
21623704.000 4593664.367 -567.057
21621309.477 4594134.594 445.081
21621270.352 4594110.305 442.504
21622563.125 4593781.242 -142.979
21623704.000 4593586.477 -610.308
21621231.227 4594086.023 442.700
21621192.109 4594061.734 442.763
21621152.984 4594037.453 442.695
21622505.094 4593734.773 -143.961
21621114.297 4594006.477 442.041
21621075.609 4593975.500 441.386
21622447.063 4593688.305 -144.944
21623704.000 4593575.531 -615.113
21621036.922 4593944.523 440.731
21620998.234 4593913.539 440.075
21620959.547 4593882.563 439.421
21622331.000 4593595.375 -146.908
21623704.000 4593349.180 -715.717
21620920.859 4593851.586 438.766
21620882.172 4593820.609 438.111
21620843.484 4593789.633 437.456
21620804.797 4593758.656 436.801
21622243.953 4593525.680 -148.382
21623704.000 4593345.906 -717.156
21620766.109 4593727.680 436.146
21620727.422 4593696.703 435.491
21620688.727 4593665.719 434.836
21622185.914 4593479.203 -149.364
21623704.000 4593343.781 -718.090
21620650.039 4593634.742 434.181
21622098.867 4593409.508 -150.837
21623567.047 4593199.766 -735.529
21620611.352 4593603.766 433.526
21620572.664 4593572.789 432.872
21620533.977 4593541.813 432.217
21620495.289 4593510.836 431.562
21622040.836 4593363.047 -151.820
21620456.602 4593479.859 430.907
21620417.914 4593448.883 430.252
21620379.227 4593417.898 429.597
21621953.789 4593293.344 -153.294
21620340.539 4593386.922 428.942
21620301.852 4593355.945 428.287
21620263.164 4593324.969 427.632
21620222.344 4593297.039 427.299
21621803.906 4593184.031 -155.024
21620181.523 4593269.109 426.967
21620140.695 4593241.180 426.634
21620099.875 4593213.250 427.371
21621712.063 4593121.203 -150.194
21623385.477 4593071.031 -732.037
21620059.055 4593185.328 430.223
21620018.234 4593157.398 433.074
21619977.406 4593129.469 435.926
21621620.211 4593058.359 -143.779
21619936.586 4593101.539 438.777
21619895.766 4593073.609 441.629
21619854.945 4593045.680 444.480
21621467.125 4592953.625 -133.085
21623242.602 4592973.281 -722.057
21619814.117 4593017.750 447.332
21619773.297 4592989.820 450.183
21619732.477 4592961.898 453.035
21619691.656 4592933.969 455.886
21621405.891 4592911.734 -128.808
21619650.828 4592906.039 458.738
21619610.008 4592878.109 461.589
21619569.188 4592850.180 464.441
21621353.023 4592866.906 -125.392
21619539.516 4592818.336 466.144
21619509.844 4592786.492 467.847
21619480.180 4592754.641 469.549
21619450.508 4592722.797 471.252
21621200.492 4592725.969 -115.909
21619420.836 4592690.953 472.955
21619392.602 4592670.781 474.900
21619364.375 4592650.602 476.843
21619336.141 4592630.430 478.788
21619365.164 4592602.703 475.237
21621244.031 4592684.375 -121.235
21623203.641 4592666.875 -728.293
21619394.188 4592574.969 471.686
21619423.211 4592547.242 468.135
21619454.969 4592509.563 464.015
21619486.719 4592471.883 459.895
21619518.477 4592434.203 455.775
21621361.055 4592550.539 -136.259
21619550.227 4592396.516 451.655
21619581.984 4592358.836 447.534
21619613.734 4592321.156 443.415
21619645.492 4592283.477 442.593
21619683.711 4592259.250 441.111
21621461.172 4592447.586 -144.167
21619721.930 4592235.016 439.628
21619760.148 4592210.789 438.146
21619798.367 4592186.563 436.664
21621575.828 4592374.898 -148.614
21623295.953 4592599.578 -731.668
21619836.586 4592162.328 435.182
21619874.805 4592138.102 433.699
21621637.305 4592341.211 -151.216
21619918.555 4592117.414 431.712
21619962.305 4592096.734 429.725
21620006.047 4592076.047 427.738
21621702.922 4592310.188 -154.197
21623487.297 4592502.953 -740.105
21620049.797 4592055.367 425.750
21620093.547 4592034.680 423.763
21620137.297 4592013.992 421.776
21621834.164 4592248.133 -160.158
21620181.039 4591993.313 419.789
21620224.789 4591972.625 417.802
21620268.539 4591951.945 415.814
21621932.602 4592201.594 -164.630
21620312.289 4591931.258 413.827
21620356.031 4591910.578 411.840
21621998.219 4592170.570 -167.611
21623618.539 4592440.906 -746.053
21620399.781 4591889.891 409.853
21620443.531 4591869.203 407.895
21620487.281 4591848.523 406.080
21620531.023 4591827.836 404.266
21622129.469 4592108.516 -173.161
21620574.773 4591807.156 402.452
21620618.523 4591786.469 400.638
21620655.898 4591764.492 399.268
21620693.266 4591742.508 397.900
21622246.367 4592043.547 -177.602
21623704.000 4592339.414 -725.414
21620730.641 4591720.531 396.531
21620767.094 4591688.625 395.635
21620803.539 4591656.719 394.739
21622301.039 4591995.688 -178.946
21623704.000 4592332.297 -722.608
21620839.992 4591624.820 393.842
21620876.445 4591592.914 392.946
21620912.891 4591561.008 392.050
21622383.055 4591923.906 -180.962
21623704.000 4592163.461 -664.521
21620949.344 4591529.109 391.979
21620985.797 4591497.203 392.732
21621022.250 4591465.297 393.485
21622465.078 4591852.125 -179.886
21621058.695 4591433.391 394.239
21621095.148 4591401.484 394.992
21622519.750 4591804.266 -178.756
21623704.000 4592149.383 -659.468
21621131.602 4591369.586 395.744
21621168.047 4591337.680 396.497
21621204.500 4591305.773 397.250
21622687.742 4590946.250 -176.498
21623704.000 4590733.148 -591.013
21621240.953 4591273.875 398.003
21621277.398 4591241.969 398.756
21621313.852 4591210.063 399.509
21621355.305 4591186.117 399.321
21621396.758 4591162.172 399.133
21622866.773 4590826.547 -176.852
21621438.211 4591138.219 398.337
21621479.664 4591114.273 397.530
21621521.117 4591090.328 396.723
21621562.570 4591066.383 395.916
21622960.047 4590772.672 -178.668
21623704.000 4590706.852 -567.755
21621604.023 4591042.438 395.109
21621645.477 4591018.484 394.302
21621686.930 4590994.539 393.495
21623084.406 4590700.828 -181.089
21623704.000 4590581.477 -454.135
21621728.383 4590970.594 392.688
21621769.836 4590946.648 391.881
21621811.289 4590922.695 391.075
21621852.742 4590898.750 390.268
21621894.195 4590874.805 389.460
21621931.547 4590843.742 389.485
21623233.695 4590600.359 -182.867
21623704.000 4590558.844 -429.375
21621968.891 4590812.688 389.510
21622006.242 4590781.625 389.535
21622043.594 4590750.563 389.560
21622080.938 4590719.500 389.586
21622118.289 4590688.445 389.610
21623345.742 4590507.172 -182.793
21623704.000 4590516.859 -392.599
21622155.633 4590657.383 389.635
21622192.984 4590626.320 389.660
21623457.789 4590413.992 -182.717
21623704.000 4590465.984 -357.862
21622230.336 4590595.258 389.685
21622267.680 4590564.203 389.710
21622305.031 4590533.141 389.735
21623541.820 4590344.102 -182.661
21623704.000 4590367.969 -290.885
21622342.383 4590502.078 389.760
21622379.727 4590471.016 389.786
21622417.078 4590439.961 389.810
21622454.422 4590408.898 390.032
21622491.773 4590377.836 390.416
21622529.125 4590346.773 390.801
21623653.875 4590250.922 -181.899
21623704.000 4590247.281 -207.862
21622566.469 4590315.719 391.186
21623704.000 4590209.227 -181.383
21623704.000 4590204.898 -178.373
21622603.820 4590284.656 391.571
21623704.000 4590204.758 -178.271
21622642.594 4590261.039 391.193
21623704.000 4590204.641 -178.162
21622681.367 4590237.422 390.587
21623704.000 4590204.516 -178.047
21623704.000 4590158.383 -135.414
21622720.141 4590213.797 388.910
21623704.000 4590156.602 -133.834
21622758.914 4590190.180 387.232
21623704.000 4590154.688 -132.137
21622793.508 4590158.531 386.508
21623704.000 4590151.867 -130.440
21623704.000 4590079.602 -83.037
21622828.109 4590126.875 385.783
21623704.000 4590074.273 -79.854
21622862.703 4590095.227 385.058
21623704.000 4590068.594 -76.460
21622897.297 4590063.578 384.333
21623704.000 4590062.523 -72.833
21623704.000 4590009.633 -41.235
21622931.891 4590031.930 383.609
[...]
POINT_DATA 7807
COLOR_SCALARS GocadColor 4
1 0.447059 0.337255 1
1 0.447059 0.337255 1
1 0.447059 0.337255 1
1 0.447059 0.337255 1
1 0.447059 0.337255 1
1 0.447059 0.337255 1
1 0.447059 0.337255 1
1 0.447059 0.337255 1
1 0.447059 0.337255 1
1 0.447059 0.337255 1
1 0.447059 0.337255 1
1 0.447059 0.337255 1
1 0.447059 0.337255 1
1 0.447059 0.337255 1
1 0.447059 0.337255 1
1 0.447059 0.337255 1
1 0.447059 0.337255 1
1 0.447059 0.337255 1
1 0.447059 0.337255 1
1 0.447059 0.337255 1
1 0.447059 0.337255 1
1 0.447059 0.337255 1
1 0.447059 0.337255 1
1 0.447059 0.337255 1
1 0.447059 0.337255 1
1 0.447059 0.337255 1
1 0.447059 0.337255 1
1 0.447059 0.337255 1
1 0.447059 0.337255 1
1 0.447059 0.337255 1
1 0.447059 0.337255 1
1 0.447059 0.337255 1
1 0.447059 0.337255 1
1 0.447059 0.337255 1
1 0.447059 0.337255 1
1 0.447059 0.337255 1
1 0.447059 0.337255 1
1 0.447059 0.337255 1
1 0.447059 0.337255 1
1 0.447059 0.337255 1
1 0.447059 0.337255 1
1 0.447059 0.337255 1
1 0.447059 0.337255 1
1 0.447059 0.337255 1
1 0.447059 0.337255 1
1 0.447059 0.337255 1
1 0.447059 0.337255 1
1 0.447059 0.337255 1
1 0.447059 0.337255 1
1 0.447059 0.337255 1
1 0.447059 0.337255 1
1 0.447059 0.337255 1
1 0.447059 0.337255 1
1 0.447059 0.337255 1
1 0.447059 0.337255 1
1 0.447059 0.337255 1
1 0.447059 0.337255 1
1 0.447059 0.337255 1
1 0.447059 0.337255 1
1 0.447059 0.337255 1
1 0.447059 0.337255 1
1 0.447059 0.337255 1
1 0.447059 0.337255 1
1 0.447059 0.337255 1
1 0.447059 0.337255 1
1 0.447059 0.337255 1
1 0.447059 0.337255 1
1 0.447059 0.337255 1
1 0.447059 0.337255 1
1 0.447059 0.337255 1
1 0.447059 0.337255 1
1 0.447059 0.337255 1
1 0.447059 0.337255 1
1 0.447059 0.337255 1
1 0.447059 0.337255 1
1 0.447059 0.337255 1
1 0.447059 0.337255 1
1 0.447059 0.337255 1
1 0.447059 0.337255 1
1 0.447059 0.337255 1
1 0.447059 0.337255 1
1 0.447059 0.337255 1
1 0.447059 0.337255 1
1 0.447059 0.337255 1
1 0.447059 0.337255 1
1 0.447059 0.337255 1
1 0.447059 0.337255 1
1 0.447059 0.337255 1
1 0.447059 0.337255 1
1 0.447059 0.337255 1
1 0.447059 0.337255 1
1 0.447059 0.337255 1
1 0.447059 0.337255 1
1 0.447059 0.337255 1
1 0.447059 0.337255 1
1 0.447059 0.337255 1
1 0.447059 0.337255 1
1 0.447059 0.337255 1
1 0.447059 0.337255 1
1 0.447059 0.337255 1
1 0.447059 0.337255 1
1 0.447059 0.337255 1
1 0.447059 0.337255 1
1 0.447059 0.337255 1
1 0.447059 0.337255 1
1 0.447059 0.337255 1
1 0.447059 0.337255 1
1 0.447059 0.337255 1
1 0.447059 0.337255 1
1 0.447059 0.337255 1
1 0.447059 0.337255 1
1 0.447059 0.337255 1
1 0.447059 0.337255 1
1 0.447059 0.337255 1
1 0.447059 0.337255 1
1 0.447059 0.337255 1
1 0.447059 0.337255 1
1 0.447059 0.337255 1
1 0.447059 0.337255 1
1 0.447059 0.337255 1
1 0.447059 0.337255 1
1 0.447059 0.337255 1
1 0.447059 0.337255 1
1 0.447059 0.337255 1
1 0.447059 0.337255 1
1 0.447059 0.337255 1
1 0.447059 0.337255 1
1 0.447059 0.337255 1
1 0.447059 0.337255 1
1 0.447059 0.337255 1
1 0.447059 0.337255 1
1 0.447059 0.337255 1
1 0.447059 0.337255 1
1 0.447059 0.337255 1
1 0.447059 0.337255 1
1 0.447059 0.337255 1
1 0.447059 0.337255 1
1 0.447059 0.337255 1
1 0.447059 0.337255 1
1 0.447059 0.337255 1
1 0.447059 0.337255 1
1 0.447059 0.337255 1
1 0.447059 0.337255 1
1 0.447059 0.337255 1
1 0.447059 0.337255 1
1 0.447059 0.337255 1
1 0.447059 0.337255 1
1 0.447059 0.337255 1
1 0.447059 0.337255 1
1 0.447059 0.337255 1
1 0.447059 0.337255 1
1 0.447059 0.337255 1
1 0.447059 0.337255 1
1 0.447059 0.337255 1
1 0.447059 0.337255 1
1 0.447059 0.337255 1
1 0.447059 0.337255 1
1 0.447059 0.337255 1
1 0.447059 0.337255 1
1 0.447059 0.337255 1
1 0.447059 0.337255 1
1 0.447059 0.337255 1
1 0.447059 0.337255 1
1 0.447059 0.337255 1
1 0.447059 0.337255 1
1 0.447059 0.337255 1
1 0.447059 0.337255 1
1 0.447059 0.337255 1
1 0.447059 0.337255 1
1 0.447059 0.337255 1
1 0.447059 0.337255 1
1 0.447059 0.337255 1
1 0.447059 0.337255 1
1 0.447059 0.337255 1
1 0.447059 0.337255 1
1 0.447059 0.337255 1
1 0.447059 0.337255 1
1 0.447059 0.337255 1
1 0.447059 0.337255 1
1 0.447059 0.337255 1
1 0.447059 0.337255 1
1 0.447059 0.337255 1
1 0.447059 0.337255 1
1 0.447059 0.337255 1
1 0.447059 0.337255 1
1 0.447059 0.337255 1
1 0.447059 0.337255 1
1 0.447059 0.337255 1
1 0.447059 0.337255 1
1 0.447059 0.337255 1
1 0.447059 0.337255 1
1 0.447059 0.337255 1
1 0.447059 0.337255 1
1 0.447059 0.337255 1
1 0.447059 0.337255 1
1 0.447059 0.337255 1
1 0.447059 0.337255 1
1 0.447059 0.337255 1
1 0.447059 0.337255 1
1 0.447059 0.337255 1
1 0.447059 0.337255 1
1 0.447059 0.337255 1
1 0.447059 0.337255 1
1 0.447059 0.337255 1
1 0.447059 0.337255 1
1 0.447059 0.337255 1
1 0.447059 0.337255 1
1 0.447059 0.337255 1
1 0.447059 0.337255 1
1 0.447059 0.337255 1
1 0.447059 0.337255 1
1 0.447059 0.337255 1
1 0.447059 0.337255 1
1 0.447059 0.337255 1
1 0.447059 0.337255 1
1 0.447059 0.337255 1
1 0.447059 0.337255 1
1 0.447059 0.337255 1
1 0.447059 0.337255 1
1 0.447059 0.337255 1
1 0.447059 0.337255 1
1 0.447059 0.337255 1
1 0.447059 0.337255 1
1 0.447059 0.337255 1
1 0.447059 0.337255 1
1 0.447059 0.337255 1
1 0.447059 0.337255 1
1 0.447059 0.337255 1
1 0.447059 0.337255 1
1 0.447059 0.337255 1
1 0.447059 0.337255 1
1 0.447059 0.337255 1
1 0.447059 0.337255 1
1 0.447059 0.337255 1
1 0.447059 0.337255 1
1 0.447059 0.337255 1
1 0.447059 0.337255 1
1 0.447059 0.337255 1
1 0.447059 0.337255 1
1 0.447059 0.337255 1
1 0.447059 0.337255 1
1 0.447059 0.337255 1
1 0.447059 0.337255 1
1 0.447059 0.337255 1
1 0.447059 0.337255 1
1 0.447059 0.337255 1
1 0.447059 0.337255 1
1 0.447059 0.337255 1
1 0.447059 0.337255 1
1 0.447059 0.337255 1
1 0.447059 0.337255 1
1 0.447059 0.337255 1
1 0.447059 0.337255 1
1 0.447059 0.337255 1
1 0.447059 0.337255 1
1 0.447059 0.337255 1
1 0.447059 0.337255 1
1 0.447059 0.337255 1
1 0.447059 0.337255 1
1 0.447059 0.337255 1
1 0.447059 0.337255 1
1 0.447059 0.337255 1
1 0.447059 0.337255 1
1 0.447059 0.337255 1
1 0.447059 0.337255 1
1 0.447059 0.337255 1
1 0.447059 0.337255 1
1 0.447059 0.337255 1
1 0.447059 0.337255 1
1 0.447059 0.337255 1
1 0.447059 0.337255 1
1 0.447059 0.337255 1
1 0.447059 0.337255 1
1 0.447059 0.337255 1
1 0.447059 0.337255 1
1 0.447059 0.337255 1
1 0.447059 0.337255 1
1 0.447059 0.337255 1
1 0.447059 0.337255 1
1 0.447059 0.337255 1
1 0.447059 0.337255 1
1 0.447059 0.337255 1
1 0.447059 0.337255 1
1 0.447059 0.337255 1
1 0.447059 0.337255 1
1 0.447059 0.337255 1
1 0.447059 0.337255 1
1 0.447059 0.337255 1
1 0.447059 0.337255 1
1 0.447059 0.337255 1
1 0.447059 0.337255 1
1 0.447059 0.337255 1
1 0.447059 0.337255 1
1 0.447059 0.337255 1
1 0.447059 0.337255 1
1 0.447059 0.337255 1
1 0.447059 0.337255 1
1 0.447059 0.337255 1
1 0.447059 0.337255 1
1 0.447059 0.337255 1
1 0.447059 0.337255 1
1 0.447059 0.337255 1
1 0.447059 0.337255 1
1 0.447059 0.337255 1
1 0.447059 0.337255 1
1 0.447059 0.337255 1
1 0.447059 0.337255 1
1 0.447059 0.337255 1
1 0.447059 0.337255 1
1 0.447059 0.337255 1
1 0.447059 0.337255 1
1 0.447059 0.337255 1
1 0.447059 0.337255 1
1 0.447059 0.337255 1
1 0.447059 0.337255 1
1 0.447059 0.337255 1
1 0.447059 0.337255 1
1 0.447059 0.337255 1
1 0.447059 0.337255 1
1 0.447059 0.337255 1
1 0.447059 0.337255 1
1 0.447059 0.337255 1
1 0.447059 0.337255 1
1 0.447059 0.337255 1
1 0.447059 0.337255 1
1 0.447059 0.337255 1
1 0.447059 0.337255 1
1 0.447059 0.337255 1
1 0.447059 0.337255 1
1 0.447059 0.337255 1
1 0.447059 0.337255 1
1 0.447059 0.337255 1
1 0.447059 0.337255 1
1 0.447059 0.337255 1
1 0.447059 0.337255 1
1 0.447059 0.337255 1
1 0.447059 0.337255 1
1 0.447059 0.337255 1
1 0.447059 0.337255 1
1 0.447059 0.337255 1
1 0.447059 0.337255 1
1 0.447059 0.337255 1
1 0.447059 0.337255 1
1 0.447059 0.337255 1
1 0.447059 0.337255 1
1 0.447059 0.337255 1
1 0.447059 0.337255 1
1 0.447059 0.337255 1
1 0.447059 0.337255 1
1 0.447059 0.337255 1
1 0.447059 0.337255 1
1 0.447059 0.337255 1
1 0.447059 0.337255 1
1 0.447059 0.337255 1
1 0.447059 0.337255 1
1 0.447059 0.337255 1
1 0.447059 0.337255 1
1 0.447059 0.337255 1
1 0.447059 0.337255 1
1 0.447059 0.337255 1
1 0.447059 0.337255 1
1 0.447059 0.337255 1
1 0.447059 0.337255 1
1 0.447059 0.337255 1
1 0.447059 0.337255 1
1 0.447059 0.337255 1
1 0.447059 0.337255 1
1 0.447059 0.337255 1
1 0.447059 0.337255 1
1 0.447059 0.337255 1
1 0.447059 0.337255 1
1 0.447059 0.337255 1
1 0.447059 0.337255 1
1 0.447059 0.337255 1
1 0.447059 0.337255 1
1 0.447059 0.337255 1
1 0.447059 0.337255 1
1 0.447059 0.337255 1
1 0.447059 0.337255 1
1 0.447059 0.337255 1
1 0.447059 0.337255 1
1 0.447059 0.337255 1
1 0.447059 0.337255 1
1 0.447059 0.337255 1
1 0.447059 0.337255 1
1 0.447059 0.337255 1
1 0.447059 0.337255 1
1 0.447059 0.337255 1
1 0.447059 0.337255 1
1 0.447059 0.337255 1
1 0.447059 0.337255 1
1 0.447059 0.337255 1
1 0.447059 0.337255 1
1 0.447059 0.337255 1
1 0.447059 0.337255 1
1 0.447059 0.337255 1
1 0.447059 0.337255 1
1 0.447059 0.337255 1
1 0.447059 0.337255 1
1 0.447059 0.337255 1
1 0.447059 0.337255 1
1 0.447059 0.337255 1
1 0.447059 0.337255 1
1 0.447059 0.337255 1
1 0.447059 0.337255 1
1 0.447059 0.337255 1
1 0.447059 0.337255 1
1 0.447059 0.337255 1
1 0.447059 0.337255 1
1 0.447059 0.337255 1
1 0.447059 0.337255 1
1 0.447059 0.337255 1
1 0.447059 0.337255 1
1 0.447059 0.337255 1
1 0.447059 0.337255 1
1 0.447059 0.337255 1
1 0.447059 0.337255 1
1 0.447059 0.337255 1
1 0.447059 0.337255 1
1 0.447059 0.337255 1
1 0.447059 0.337255 1
1 0.447059 0.337255 1
1 0.447059 0.337255 1
1 0.447059 0.337255 1
1 0.447059 0.337255 1
1 0.447059 0.337255 1
1 0.447059 0.337255 1
1 0.447059 0.337255 1
1 0.447059 0.337255 1
1 0.447059 0.337255 1
1 0.447059 0.337255 1
1 0.447059 0.337255 1
1 0.447059 0.337255 1
1 0.447059 0.337255 1
1 0.447059 0.337255 1
1 0.447059 0.337255 1
1 0.447059 0.337255 1
1 0.447059 0.337255 1
1 0.447059 0.337255 1
1 0.447059 0.337255 1
1 0.447059 0.337255 1
1 0.447059 0.337255 1
1 0.447059 0.337255 1
1 0.447059 0.337255 1
1 0.447059 0.337255 1
1 0.447059 0.337255 1
1 0.447059 0.337255 1
1 0.447059 0.337255 1
1 0.447059 0.337255 1
1 0.447059 0.337255 1
1 0.447059 0.337255 1
1 0.447059 0.337255 1
1 0.447059 0.337255 1
1 0.447059 0.337255 1
1 0.447059 0.337255 1
1 0.447059 0.337255 1
1 0.447059 0.337255 1
1 0.447059 0.337255 1
1 0.447059 0.337255 1
1 0.447059 0.337255 1
1 0.447059 0.337255 1
1 0.447059 0.337255 1
1 0.447059 0.337255 1
1 0.447059 0.337255 1
1 0.447059 0.337255 1
1 0.447059 0.337255 1
1 0.447059 0.337255 1
1 0.447059 0.337255 1
1 0.447059 0.337255 1
1 0.447059 0.337255 1
1 0.447059 0.337255 1
1 0.447059 0.337255 1
1 0.447059 0.337255 1
1 0.447059 0.337255 1
1 0.447059 0.337255 1
1 0.447059 0.337255 1
1 0.447059 0.337255 1
1 0.447059 0.337255 1
1 0.447059 0.337255 1
1 0.447059 0.337255 1
1 0.447059 0.337255 1
1 0.447059 0.337255 1
1 0.447059 0.337255 1
1 0.447059 0.337255 1
1 0.447059 0.337255 1
1 0.447059 0.337255 1
1 0.447059 0.337255 1
1 0.447059 0.337255 1
1 0.447059 0.337255 1
1 0.447059 0.337255 1
1 0.447059 0.337255 1
1 0.447059 0.337255 1
1 0.447059 0.337255 1
1 0.447059 0.337255 1
1 0.447059 0.337255 1
1 0.447059 0.337255 1
1 0.447059 0.337255 1
1 0.447059 0.337255 1
1 0.447059 0.337255 1
1 0.447059 0.337255 1
1 0.447059 0.337255 1
1 0.447059 0.337255 1
1 0.447059 0.337255 1
1 0.447059 0.337255 1
1 0.447059 0.337255 1
1 0.447059 0.337255 1
1 0.447059 0.337255 1
1 0.447059 0.337255 1
1 0.447059 0.337255 1
1 0.447059 0.337255 1
1 0.447059 0.337255 1
1 0.447059 0.337255 1
1 0.447059 0.337255 1
1 0.447059 0.337255 1
1 0.447059 0.337255 1
1 0.447059 0.337255 1
1 0.447059 0.337255 1
1 0.447059 0.337255 1
1 0.447059 0.337255 1
1 0.447059 0.337255 1
1 0.447059 0.337255 1
1 0.447059 0.337255 1
1 0.447059 0.337255 1
1 0.447059 0.337255 1
1 0.447059 0.337255 1
1 0.447059 0.337255 1
1 0.447059 0.337255 1
1 0.447059 0.337255 1
1 0.447059 0.337255 1
1 0.447059 0.337255 1
1 0.447059 0.337255 1
1 0.447059 0.337255 1
1 0.447059 0.337255 1
1 0.447059 0.337255 1
1 0.447059 0.337255 1
1 0.447059 0.337255 1
1 0.447059 0.337255 1
1 0.447059 0.337255 1
1 0.447059 0.337255 1
1 0.447059 0.337255 1
1 0.447059 0.337255 1
1 0.447059 0.337255 1
1 0.447059 0.337255 1
1 0.447059 0.337255 1
1 0.447059 0.337255 1
1 0.447059 0.337255 1
1 0.447059 0.337255 1
1 0.447059 0.337255 1
1 0.447059 0.337255 1
1 0.447059 0.337255 1
1 0.447059 0.337255 1
1 0.447059 0.337255 1
1 0.447059 0.337255 1
1 0.447059 0.337255 1
1 0.447059 0.337255 1
1 0.447059 0.337255 1
1 0.447059 0.337255 1
1 0.447059 0.337255 1
1 0.447059 0.337255 1
1 0.447059 0.337255 1
1 0.447059 0.337255 1
1 0.447059 0.337255 1
1 0.447059 0.337255 1
1 0.447059 0.337255 1
1 0.447059 0.337255 1
1 0.447059 0.337255 1
1 0.447059 0.337255 1
1 0.447059 0.337255 1
1 0.447059 0.337255 1
1 0.447059 0.337255 1
1 0.447059 0.337255 1
1 0.447059 0.337255 1
1 0.447059 0.337255 1
1 0.447059 0.337255 1
1 0.447059 0.337255 1
1 0.447059 0.337255 1
1 0.447059 0.337255 1
1 0.447059 0.337255 1
1 0.447059 0.337255 1
1 0.447059 0.337255 1
1 0.447059 0.337255 1
1 0.447059 0.337255 1
1 0.447059 0.337255 1
1 0.447059 0.337255 1
1 0.447059 0.337255 1
1 0.447059 0.337255 1
1 0.447059 0.337255 1
1 0.447059 0.337255 1
1 0.447059 0.337255 1
1 0.447059 0.337255 1
1 0.447059 0.337255 1
1 0.447059 0.337255 1
1 0.447059 0.337255 1
1 0.447059 0.337255 1
1 0.447059 0.337255 1
1 0.447059 0.337255 1
1 0.447059 0.337255 1
1 0.447059 0.337255 1
1 0.447059 0.337255 1
1 0.447059 0.337255 1
1 0.447059 0.337255 1
1 0.447059 0.337255 1
1 0.447059 0.337255 1
1 0.447059 0.337255 1
1 0.447059 0.337255 1
1 0.447059 0.337255 1
1 0.447059 0.337255 1
1 0.447059 0.337255 1
1 0.447059 0.337255 1
1 0.447059 0.337255 1
1 0.447059 0.337255 1
1 0.447059 0.337255 1
1 0.447059 0.337255 1
1 0.447059 0.337255 1
1 0.447059 0.337255 1
1 0.447059 0.337255 1
1 0.447059 0.337255 1
1 0.447059 0.337255 1
1 0.447059 0.337255 1
1 0.447059 0.337255 1
1 0.447059 0.337255 1
1 0.447059 0.337255 1
1 0.447059 0.337255 1
1 0.447059 0.337255 1
1 0.447059 0.337255 1
1 0.447059 0.337255 1
1 0.447059 0.337255 1
1 0.447059 0.337255 1
1 0.447059 0.337255 1
1 0.447059 0.337255 1
1 0.447059 0.337255 1
1 0.447059 0.337255 1
1 0.447059 0.337255 1
1 0.447059 0.337255 1
1 0.447059 0.337255 1
1 0.447059 0.337255 1
1 0.447059 0.337255 1
1 0.447059 0.337255 1
1 0.447059 0.337255 1
1 0.447059 0.337255 1
1 0.447059 0.337255 1
1 0.447059 0.337255 1
1 0.447059 0.337255 1
1 0.447059 0.337255 1
1 0.447059 0.337255 1
1 0.447059 0.337255 1
1 0.447059 0.337255 1
1 0.447059 0.337255 1
1 0.447059 0.337255 1
1 0.447059 0.337255 1
1 0.447059 0.337255 1
1 0.447059 0.337255 1
1 0.447059 0.337255 1
1 0.447059 0.337255 1
1 0.447059 0.337255 1
1 0.447059 0.337255 1
1 0.447059 0.337255 1
1 0.447059 0.337255 1
1 0.447059 0.337255 1
1 0.447059 0.337255 1
1 0.447059 0.337255 1
1 0.447059 0.337255 1
1 0.447059 0.337255 1
1 0.447059 0.337255 1
1 0.447059 0.337255 1
1 0.447059 0.337255 1
1 0.447059 0.337255 1
1 0.447059 0.337255 1
1 0.447059 0.337255 1
1 0.447059 0.337255 1
1 0.447059 0.337255 1
1 0.447059 0.337255 1
1 0.447059 0.337255 1
1 0.447059 0.337255 1
1 0.447059 0.337255 1
1 0.447059 0.337255 1
1 0.447059 0.337255 1
1 0.447059 0.337255 1
1 0.447059 0.337255 1
1 0.447059 0.337255 1
1 0.447059 0.337255 1
1 0.447059 0.337255 1
1 0.447059 0.337255 1
1 0.447059 0.337255 1
1 0.447059 0.337255 1
1 0.447059 0.337255 1
1 0.447059 0.337255 1
1 0.447059 0.337255 1
1 0.447059 0.337255 1
1 0.447059 0.337255 1
1 0.447059 0.337255 1
1 0.447059 0.337255 1
1 0.447059 0.337255 1
1 0.447059 0.337255 1
1 0.447059 0.337255 1
1 0.447059 0.337255 1
1 0.447059 0.337255 1
1 0.447059 0.337255 1
1 0.447059 0.337255 1
1 0.447059 0.337255 1
1 0.447059 0.337255 1
1 0.447059 0.337255 1
1 0.447059 0.337255 1
1 0.447059 0.337255 1
1 0.447059 0.337255 1
1 0.447059 0.337255 1
1 0.447059 0.337255 1
1 0.447059 0.337255 1
1 0.447059 0.337255 1
1 0.447059 0.337255 1
1 0.447059 0.337255 1
1 0.447059 0.337255 1
1 0.447059 0.337255 1
1 0.447059 0.337255 1
1 0.447059 0.337255 1
1 0.447059 0.337255 1
1 0.447059 0.337255 1
1 0.447059 0.337255 1
1 0.447059 0.337255 1
1 0.447059 0.337255 1
1 0.447059 0.337255 1
1 0.447059 0.337255 1
1 0.447059 0.337255 1
1 0.447059 0.337255 1
1 0.447059 0.337255 1
1 0.447059 0.337255 1
1 0.447059 0.337255 1
1 0.447059 0.337255 1
1 0.447059 0.337255 1
1 0.447059 0.337255 1
1 0.447059 0.337255 1
1 0.447059 0.337255 1
1 0.447059 0.337255 1
1 0.447059 0.337255 1
1 0.447059 0.337255 1
1 0.447059 0.337255 1
1 0.447059 0.337255 1
1 0.447059 0.337255 1
1 0.447059 0.337255 1
1 0.447059 0.337255 1
1 0.447059 0.337255 1
1 0.447059 0.337255 1
1 0.447059 0.337255 1
1 0.447059 0.337255 1
1 0.447059 0.337255 1
1 0.447059 0.337255 1
1 0.447059 0.337255 1
1 0.447059 0.337255 1
1 0.447059 0.337255 1
1 0.447059 0.337255 1
1 0.447059 0.337255 1
1 0.447059 0.337255 1
1 0.447059 0.337255 1
1 0.447059 0.337255 1
1 0.447059 0.337255 1
1 0.447059 0.337255 1
1 0.447059 0.337255 1
1 0.447059 0.337255 1
1 0.447059 0.337255 1
1 0.447059 0.337255 1
1 0.447059 0.337255 1
1 0.447059 0.337255 1
1 0.447059 0.337255 1
1 0.447059 0.337255 1
1 0.447059 0.337255 1
1 0.447059 0.337255 1
1 0.447059 0.337255 1
1 0.447059 0.337255 1
1 0.447059 0.337255 1
1 0.447059 0.337255 1
1 0.447059 0.337255 1
1 0.447059 0.337255 1
1 0.447059 0.337255 1
1 0.447059 0.337255 1
1 0.447059 0.337255 1
1 0.447059 0.337255 1
1 0.447059 0.337255 1
1 0.447059 0.337255 1
1 0.447059 0.337255 1
1 0.447059 0.337255 1
1 0.447059 0.337255 1
1 0.447059 0.337255 1
1 0.447059 0.337255 1
1 0.447059 0.337255 1
1 0.447059 0.337255 1
1 0.447059 0.337255 1
1 0.447059 0.337255 1
1 0.447059 0.337255 1
1 0.447059 0.337255 1
1 0.447059 0.337255 1
1 0.447059 0.337255 1
1 0.447059 0.337255 1
1 0.447059 0.337255 1
1 0.447059 0.337255 1
1 0.447059 0.337255 1
1 0.447059 0.337255 1
1 0.447059 0.337255 1
1 0.447059 0.337255 1
1 0.447059 0.337255 1
1 0.447059 0.337255 1
1 0.447059 0.337255 1
1 0.447059 0.337255 1
1 0.447059 0.337255 1
1 0.447059 0.337255 1
1 0.447059 0.337255 1
1 0.447059 0.337255 1
1 0.447059 0.337255 1
1 0.447059 0.337255 1
1 0.447059 0.337255 1
1 0.447059 0.337255 1
1 0.447059 0.337255 1
1 0.447059 0.337255 1
1 0.447059 0.337255 1
1 0.447059 0.337255 1
1 0.447059 0.337255 1
1 0.447059 0.337255 1
1 0.447059 0.337255 1
1 0.447059 0.337255 1
1 0.447059 0.337255 1
1 0.447059 0.337255 1
1 0.447059 0.337255 1
1 0.447059 0.337255 1
1 0.447059 0.337255 1
1 0.447059 0.337255 1
1 0.447059 0.337255 1
1 0.447059 0.337255 1
1 0.447059 0.337255 1
1 0.447059 0.337255 1
1 0.447059 0.337255 1
1 0.447059 0.337255 1
1 0.447059 0.337255 1
1 0.447059 0.337255 1
1 0.447059 0.337255 1
1 0.447059 0.337255 1
1 0.447059 0.337255 1
1 0.447059 0.337255 1
1 0.447059 0.337255 1
1 0.447059 0.337255 1
1 0.447059 0.337255 1
1 0.447059 0.337255 1
1 0.447059 0.337255 1
1 0.447059 0.337255 1
1 0.447059 0.337255 1
1 0.447059 0.337255 1
1 0.447059 0.337255 1
1 0.447059 0.337255 1
1 0.447059 0.337255 1
1 0.447059 0.337255 1
1 0.447059 0.337255 1
1 0.447059 0.337255 1
1 0.447059 0.337255 1
1 0.447059 0.337255 1
1 0.447059 0.337255 1
1 0.447059 0.337255 1
1 0.447059 0.337255 1
1 0.447059 0.337255 1
1 0.447059 0.337255 1
1 0.447059 0.337255 1
1 0.447059 0.337255 1
1 0.447059 0.337255 1
1 0.447059 0.337255 1
1 0.447059 0.337255 1
1 0.447059 0.337255 1
1 0.447059 0.337255 1
1 0.447059 0.337255 1
1 0.447059 0.337255 1
1 0.447059 0.337255 1
1 0.447059 0.337255 1
1 0.447059 0.337255 1
1 0.447059 0.337255 1
1 0.447059 0.337255 1
1 0.447059 0.337255 1
1 0.447059 0.337255 1
1 0.447059 0.337255 1
1 0.447059 0.337255 1
1 0.447059 0.337255 1
1 0.447059 0.337255 1
1 0.447059 0.337255 1
1 0.447059 0.337255 1
1 0.447059 0.337255 1
1 0.447059 0.337255 1
1 0.447059 0.337255 1
1 0.447059 0.337255 1
1 0.447059 0.337255 1
1 0.447059 0.337255 1
1 0.447059 0.337255 1
1 0.447059 0.337255 1
1 0.447059 0.337255 1
1 0.447059 0.337255 1
1 0.447059 0.337255 1
1 0.447059 0.337255 1
1 0.447059 0.337255 1
1 0.447059 0.337255 1
1 0.447059 0.337255 1
1 0.447059 0.337255 1
1 0.447059 0.337255 1
1 0.447059 0.337255 1
1 0.447059 0.337255 1
1 0.447059 0.337255 1
1 0.447059 0.337255 1
1 0.447059 0.337255 1
1 0.447059 0.337255 1
1 0.447059 0.337255 1
1 0.447059 0.337255 1
1 0.447059 0.337255 1
1 0.447059 0.337255 1
1 0.447059 0.337255 1