# vtk DataFile Version 3.0
Gocad TSurf to VTK
ASCII
DATASET POLYDATA
POINTS 12639 float
21579352.219 4593354.758 -4166.749
21579892.422 4593263.461 -4625.000
21579351.797 4593354.344 -4166.269
21579257.305 4593259.695 -4067.933
21579372.094 4593374.070 -4189.382
21579417.930 4593418.625 -4241.584
21579472.352 4593489.250 -4308.077
21579629.430 4593693.094 -4500.000
21579630.367 4593694.320 -4501.151
21579630.195 4593694.094 -4500.937
21579630.836 4593694.930 -4501.722
21579725.898 4593808.063 -4615.269
21579732.109 4593817.758 -4623.271
21579733.453 4593819.852 -4625.000
21579760.828 4593851.453 -4692.962
21579760.805 4593851.484 -4692.942
21580043.211 4593438.727 -5000.000
21579901.656 4594028.547 -5000.000
21580759.031 4592793.641 -4250.000
21581190.695 4593015.977 -5000.000
21580185.281 4593005.016 -4250.000
21579492.070 4593115.922 -4250.000
21580543.195 4592682.469 -3875.000
21581103.758 4592238.547 -3500.000
21580091.664 4592488.109 -2925.000
21579216.500 4592954.523 -3875.000
21579315.266 4592599.016 -2925.000
21579148.953 4593166.078 -3905.756
21579126.945 4593151.539 -3875.000
21579163.602 4593178.734 -3927.676
21579189.828 4593201.391 -3966.928
21579211.922 4593220.477 -4000.000
21579218.273 4593225.969 -4009.513
21579100.984 4593134.398 -3838.731
21579042.453 4593095.758 -3756.945
21579006.172 4593071.805 -3706.253
21578940.930 4592793.125 -3500.000
21578937.641 4593026.555 -3610.497
21578940.930 4592640.617 -2925.000
21579190.484 4592460.375 -2350.000
21578810.031 4592972.234 -3214.294
21578778.188 4592977.414 -3000.000
21578834.766 4592972.172 -3356.946
21578842.609 4592972.031 -3401.818
21578859.750 4592971.734 -3500.000
21578764.234 4592984.680 -2925.000
21578756.734 4592980.719 -2913.235
21578751.734 4592978.078 -2905.398
21578677.516 4592938.930 -2789.146
21578552.719 4592488.109 -2350.000
21578632.828 4592915.367 -2719.165
21578940.922 4592335.594 -1775.000
21579620.281 4592321.734 -1775.000
21578358.625 4592335.594 -1775.000
21578217.047 4592772.141 -1814.552
21578164.516 4592183.086 -1200.000
21578004.141 4592725.516 -1284.958
21578940.922 4592183.086 -1200.000
21579384.586 4592238.547 -1200.000
21578226.047 4591935.188 -822.679
21578958.102 4591964.031 -823.138
21578062.844 4591905.492 -829.834
21578174.453 4591656.594 -451.528
21577948.969 4592027.078 -822.049
21577798.641 4591707.625 -458.295
21577874.375 4592145.125 -813.257
21577669.438 4592002.352 -433.270
21577932.844 4592699.766 -1144.283
21577919.438 4592694.047 -1121.145
21577969.984 4592718.039 -1199.987
21577932.844 4592699.789 -1144.299
21577969.984 4592718.039 -1200.000
21577904.797 4592687.766 -1095.839
21577883.734 4592681.172 -1060.525
21577844.797 4592679.984 -1000.000
21577788.188 4592680.766 -913.098
21577724.297 4592681.641 -815.035
21577724.281 4592681.641 -815.015
21577708.797 4592681.984 -790.723
21577690.750 4592682.391 -762.438
21577663.766 4592682.992 -720.136
21577637.969 4592683.563 -679.713
21577574.563 4592296.570 -407.633
21577627.344 4592683.344 -664.790
21577579.859 4592128.328 -424.441
21577637.109 4592035.813 -431.398
21577277.219 4592321.883 -13.641
21577272.500 4592259.031 -20.184
21577218.031 4592579.070 -7.776
21576984.594 4592410.055 384.733
21577461.609 4592626.000 -406.409
21577208.906 4592688.938 -10.432
21577507.109 4592680.883 -495.915
21577502.141 4592681.234 -487.202
21577547.016 4592681.695 -551.967
21577576.109 4592682.297 -592.821
21577614.500 4592683.086 -646.737
21577494.953 4592681.734 -474.613
21577483.594 4592684.484 -455.048
21577483.594 4592684.484 -455.034
21577478.578 4592685.703 -446.398
21577464.438 4592689.125 -422.047
21577464.438 4592689.125 -422.033
21577462.234 4592689.656 -418.256
21577460.250 4592690.133 -414.841
21577457.453 4592690.813 -410.000
21577456.203 4592691.117 -407.854
21577442.984 4592693.734 -387.294
21577439.875 4592694.352 -382.447
21577421.547 4592697.977 -353.940
21577418.656 4592698.547 -349.451
21577417.094 4592698.859 -347.011
21577418.953 4592698.492 -349.913
21577399.578 4592702.328 -319.774
21577391.438 4592703.938 -307.101
21577391.594 4592703.906 -307.359
21577389.938 4592704.234 -304.781
21577387.641 4592704.688 -301.192
21577391.203 4592703.984 -306.748
21577391.297 4592703.969 -306.894
21577373.547 4592707.477 -279.276
21577366.578 4592708.852 -268.439
21577362.297 4592709.695 -261.771
21577339.422 4592714.227 -226.185
21577330.188 4592716.055 -211.817
21577339.422 4592714.227 -226.201
21577328.922 4592716.305 -209.854
21577252.984 4592736.781 -92.555
21577249.125 4592737.820 -86.603
21577234.688 4592741.766 -64.068
21577220.141 4592745.750 -41.344
21577249.109 4592737.820 -86.581
21577248.844 4592737.961 -86.188
21577203.828 4592750.211 -15.862
21577182.359 4592755.930 16.993
21577179.891 4592756.586 20.779
21576960.266 4592703.039 381.765
21577178.844 4592756.867 22.394
21576964.313 4592654.211 386.090
21576968.375 4592605.375 390.418
21576972.422 4592556.547 392.081
21576976.484 4592507.719 389.632
21576980.531 4592458.883 387.182
21577172.234 4592758.625 32.509
21577170.172 4592759.805 35.519
21577168.531 4592760.742 37.915
21576956.203 4592751.867 377.438
21577167.063 4592761.594 40.074
21577164.953 4592762.805 43.163
21577153.469 4592769.383 59.958
21577152.563 4592769.906 61.288
21576952.156 4592800.703 373.112
21577144.609 4592774.461 72.924
21577140.469 4592776.836 78.984
21577114.547 4592791.703 116.909
21577056.078 4592811.930 205.406
21577106.125 4592796.547 129.253
21577051.859 4592814.859 211.472
21577039.813 4592823.203 228.776
21577051.953 4592814.875 211.315
21577026.328 4592832.555 248.153
21577011.297 4592842.977 269.762
21576948.094 4592849.531 368.785
21577007.078 4592846.188 275.743
21577000.906 4592850.266 282.845
21576984.672 4592859.953 302.240
21576937.172 4592879.250 365.389
21576967.844 4592874.070 319.455
21576966.922 4592874.836 320.382
21576964.359 4592876.969 322.967
21576954.875 4592884.867 332.565
21576946.094 4592892.258 341.593
21576926.250 4592908.961 361.995
21577103.750 4592797.906 132.722
21577114.547 4592791.711 116.924
21577096.047 4592802.320 143.984
21577081.719 4592810.539 164.952
21577067.141 4592814.227 187.327
21577079.484 4592811.820 168.219
21577073.125 4592815.469 177.532
21577073.125 4592815.477 177.551
21577391.688 4592703.891 -307.501
21576981.453 4592368.148 381.812
21576978.313 4592326.250 377.852
21576975.156 4592284.344 373.088
21576972.016 4592242.445 368.326
21576968.875 4592200.539 363.563
21577280.938 4592132.695 -33.550
21576977.656 4592158.219 359.415
21576986.422 4592115.898 355.267
21577287.531 4592100.953 -36.661
21576995.203 4592073.578 351.119
21577003.969 4592031.258 346.970
21577300.688 4592037.477 -42.883
21577012.750 4591988.938 342.823
21577045.063 4591955.477 340.950
21577077.391 4591922.008 339.077
21577397.641 4591937.086 -48.501
21577109.703 4591888.547 337.205
21577142.016 4591855.086 335.332
21577174.344 4591821.617 333.459
21577460.469 4591852.523 -54.277
21577206.656 4591788.156 331.587
21577225.797 4591742.336 327.630
21577474.828 4591818.156 -57.245
21577244.938 4591696.516 323.674
21577264.078 4591650.695 319.717
21577503.547 4591749.438 -63.179
21577774.016 4591743.695 -455.797
21577283.219 4591604.883 315.761
21577302.359 4591559.063 311.805
21577321.500 4591513.242 307.848
21577554.656 4591615.750 -74.985
21577340.641 4591467.422 303.892
21577351.359 4591426.641 300.020
21577362.078 4591385.859 296.149
21577372.797 4591345.086 292.278
21577578.766 4591524.000 -83.695
21577383.516 4591304.305 288.406
21577394.234 4591263.523 284.535
21577432.766 4591232.156 283.410
21577644.594 4591446.359 -87.500
21577471.297 4591200.781 283.333
21577509.828 4591169.414 283.257
21577548.359 4591138.039 282.998
21577764.031 4591367.313 -89.462
21577586.891 4591106.672 281.017
21577630.531 4591095.391 280.717
21577674.188 4591084.109 280.418
21577829.500 4591350.391 -89.911
21577941.172 4591627.953 -459.940
21577717.828 4591072.828 280.119
21577757.813 4591072.719 280.665
21577797.813 4591072.602 281.211
21577837.813 4591072.484 281.757
21577982.328 4591356.242 -86.374
21577877.797 4591072.375 282.816
21577921.594 4591080.625 284.835
21577965.391 4591088.867 286.852
21578048.016 4591368.609 -83.347
21578043.063 4591631.859 -457.583
21578009.188 4591097.117 288.871
21578052.984 4591105.367 290.889
21578080.875 4591374.797 -81.833
21578096.797 4591113.609 292.908
21578140.594 4591121.859 294.926
21578184.391 4591130.109 296.945
21578179.422 4591393.352 -77.292
21578228.188 4591138.352 298.962
21578271.984 4591146.602 300.981
21578279.781 4591416.945 -72.189
21578318.203 4591161.563 303.748
21578364.422 4591176.531 306.516
21578410.656 4591191.492 309.284
21578453.109 4591473.063 -61.810
21578456.875 4591206.453 312.051
21578522.156 4591483.633 -58.875
21578425.969 4591720.313 -438.761
21578595.344 4591243.430 319.543
21578641.375 4591250.484 321.500
21578549.313 4591236.383 317.587
21578503.094 4591221.422 314.819
21578687.406 4591257.531 322.478
21578556.688 4591488.922 -58.141
21578733.438 4591264.578 320.331
21578779.469 4591271.633 318.184
21578694.781 4591510.070 -64.582
21578825.500 4591278.680 316.037
21578871.531 4591285.734 313.891
21578917.578 4591292.781 311.742
21578957.938 4591520.641 -67.803
21578963.609 4591299.828 309.596
21579009.641 4591306.883 307.449
21578992.461 4591525.938 -69.413
21579091.469 4591754.109 -452.500
21579055.672 4591313.930 305.302
21579101.703 4591320.977 303.154
21579147.734 4591328.031 301.008
21579193.766 4591335.078 298.861
21579130.555 4591547.078 -75.854
21579242.016 4591325.125 295.000
21579290.281 4591315.164 291.139
21579202.938 4591532.141 -81.646
21579187.992 4591734.188 -460.222
21579338.547 4591305.203 287.277
21579373.055 4591298.086 284.517
21579386.805 4591295.250 283.417
21579435.063 4591285.297 279.556
21579347.719 4591502.273 -93.229
21579483.320 4591275.336 275.695
21579530.242 4591272.516 272.577
21579418.109 4591498.047 -97.905
21579577.172 4591269.695 269.460
21579624.094 4591266.875 266.343
[...]
POINT_DATA 12639
COLOR_SCALARS GocadColor 4
0.854902 0.666667 0 1
0.854902 0.666667 0 1
0.854902 0.666667 0 1
0.854902 0.666667 0 1
0.854902 0.666667 0 1
0.854902 0.666667 0 1
0.854902 0.666667 0 1
0.854902 0.666667 0 1
0.854902 0.666667 0 1
0.854902 0.666667 0 1
0.854902 0.666667 0 1
0.854902 0.666667 0 1
0.854902 0.666667 0 1
0.854902 0.666667 0 1
0.854902 0.666667 0 1
0.854902 0.666667 0 1
0.854902 0.666667 0 1
0.854902 0.666667 0 1
0.854902 0.666667 0 1
0.854902 0.666667 0 1
0.854902 0.666667 0 1
0.854902 0.666667 0 1
0.854902 0.666667 0 1
0.854902 0.666667 0 1
0.854902 0.666667 0 1
0.854902 0.666667 0 1
0.854902 0.666667 0 1
0.854902 0.666667 0 1
0.854902 0.666667 0 1
0.854902 0.666667 0 1
0.854902 0.666667 0 1
0.854902 0.666667 0 1
0.854902 0.666667 0 1
0.854902 0.666667 0 1
0.854902 0.666667 0 1
0.854902 0.666667 0 1
0.854902 0.666667 0 1
0.854902 0.666667 0 1
0.854902 0.666667 0 1
0.854902 0.666667 0 1
0.854902 0.666667 0 1
0.854902 0.666667 0 1
0.854902 0.666667 0 1
0.854902 0.666667 0 1
0.854902 0.666667 0 1
0.854902 0.666667 0 1
0.854902 0.666667 0 1
0.854902 0.666667 0 1
0.854902 0.666667 0 1
0.854902 0.666667 0 1
0.854902 0.666667 0 1
0.854902 0.666667 0 1
0.854902 0.666667 0 1
0.854902 0.666667 0 1
0.854902 0.666667 0 1
0.854902 0.666667 0 1
0.854902 0.666667 0 1
0.854902 0.666667 0 1
0.854902 0.666667 0 1
0.854902 0.666667 0 1
0.854902 0.666667 0 1
0.854902 0.666667 0 1
0.854902 0.666667 0 1
0.854902 0.666667 0 1
0.854902 0.666667 0 1
0.854902 0.666667 0 1
0.854902 0.666667 0 1
0.854902 0.666667 0 1
0.854902 0.666667 0 1
0.854902 0.666667 0 1
0.854902 0.666667 0 1
0.854902 0.666667 0 1
0.854902 0.666667 0 1
0.854902 0.666667 0 1
0.854902 0.666667 0 1
0.854902 0.666667 0 1
0.854902 0.666667 0 1
0.854902 0.666667 0 1
0.854902 0.666667 0 1
0.854902 0.666667 0 1
0.854902 0.666667 0 1
0.854902 0.666667 0 1
0.854902 0.666667 0 1
0.854902 0.666667 0 1
0.854902 0.666667 0 1
0.854902 0.666667 0 1
0.854902 0.666667 0 1
0.854902 0.666667 0 1
0.854902 0.666667 0 1
0.854902 0.666667 0 1
0.854902 0.666667 0 1
0.854902 0.666667 0 1
0.854902 0.666667 0 1
0.854902 0.666667 0 1
0.854902 0.666667 0 1
0.854902 0.666667 0 1
0.854902 0.666667 0 1
0.854902 0.666667 0 1
0.854902 0.666667 0 1
0.854902 0.666667 0 1
0.854902 0.666667 0 1
0.854902 0.666667 0 1
0.854902 0.666667 0 1
0.854902 0.666667 0 1
0.854902 0.666667 0 1
0.854902 0.666667 0 1
0.854902 0.666667 0 1
0.854902 0.666667 0 1
0.854902 0.666667 0 1
0.854902 0.666667 0 1
0.854902 0.666667 0 1
0.854902 0.666667 0 1
0.854902 0.666667 0 1
0.854902 0.666667 0 1
0.854902 0.666667 0 1
0.854902 0.666667 0 1
0.854902 0.666667 0 1
0.854902 0.666667 0 1
0.854902 0.666667 0 1
0.854902 0.666667 0 1
0.854902 0.666667 0 1
0.854902 0.666667 0 1
0.854902 0.666667 0 1
0.854902 0.666667 0 1
0.854902 0.666667 0 1
0.854902 0.666667 0 1
0.854902 0.666667 0 1
0.854902 0.666667 0 1
0.854902 0.666667 0 1
0.854902 0.666667 0 1
0.854902 0.666667 0 1
0.854902 0.666667 0 1
0.854902 0.666667 0 1
0.854902 0.666667 0 1
0.854902 0.666667 0 1
0.854902 0.666667 0 1
0.854902 0.666667 0 1
0.854902 0.666667 0 1
0.854902 0.666667 0 1
0.854902 0.666667 0 1
0.854902 0.666667 0 1
0.854902 0.666667 0 1
0.854902 0.666667 0 1
0.854902 0.666667 0 1
0.854902 0.666667 0 1
0.854902 0.666667 0 1
0.854902 0.666667 0 1
0.854902 0.666667 0 1
0.854902 0.666667 0 1
0.854902 0.666667 0 1
0.854902 0.666667 0 1
0.854902 0.666667 0 1
0.854902 0.666667 0 1
0.854902 0.666667 0 1
0.854902 0.666667 0 1
0.854902 0.666667 0 1
0.854902 0.666667 0 1
0.854902 0.666667 0 1
0.854902 0.666667 0 1
0.854902 0.666667 0 1
0.854902 0.666667 0 1
0.854902 0.666667 0 1
0.854902 0.666667 0 1
0.854902 0.666667 0 1
0.854902 0.666667 0 1
0.854902 0.666667 0 1
0.854902 0.666667 0 1
0.854902 0.666667 0 1
0.854902 0.666667 0 1
0.854902 0.666667 0 1
0.854902 0.666667 0 1
0.854902 0.666667 0 1
0.854902 0.666667 0 1
0.854902 0.666667 0 1
0.854902 0.666667 0 1
0.854902 0.666667 0 1
0.854902 0.666667 0 1
0.854902 0.666667 0 1
0.854902 0.666667 0 1
0.854902 0.666667 0 1
0.854902 0.666667 0 1
0.854902 0.666667 0 1
0.854902 0.666667 0 1
0.854902 0.666667 0 1
0.854902 0.666667 0 1
0.854902 0.666667 0 1
0.854902 0.666667 0 1
0.854902 0.666667 0 1
0.854902 0.666667 0 1
0.854902 0.666667 0 1
0.854902 0.666667 0 1
0.854902 0.666667 0 1
0.854902 0.666667 0 1
0.854902 0.666667 0 1
0.854902 0.666667 0 1
0.854902 0.666667 0 1
0.854902 0.666667 0 1
0.854902 0.666667 0 1
0.854902 0.666667 0 1
0.854902 0.666667 0 1
0.854902 0.666667 0 1
0.854902 0.666667 0 1
0.854902 0.666667 0 1
0.854902 0.666667 0 1
0.854902 0.666667 0 1
0.854902 0.666667 0 1
0.854902 0.666667 0 1
0.854902 0.666667 0 1
0.854902 0.666667 0 1
0.854902 0.666667 0 1
0.854902 0.666667 0 1
0.854902 0.666667 0 1
0.854902 0.666667 0 1
0.854902 0.666667 0 1
0.854902 0.666667 0 1
0.854902 0.666667 0 1
0.854902 0.666667 0 1
0.854902 0.666667 0 1
0.854902 0.666667 0 1
0.854902 0.666667 0 1
0.854902 0.666667 0 1
0.854902 0.666667 0 1
0.854902 0.666667 0 1
0.854902 0.666667 0 1
0.854902 0.666667 0 1
0.854902 0.666667 0 1
0.854902 0.666667 0 1
0.854902 0.666667 0 1
0.854902 0.666667 0 1
0.854902 0.666667 0 1
0.854902 0.666667 0 1
0.854902 0.666667 0 1
0.854902 0.666667 0 1
0.854902 0.666667 0 1
0.854902 0.666667 0 1
0.854902 0.666667 0 1
0.854902 0.666667 0 1
0.854902 0.666667 0 1
0.854902 0.666667 0 1
0.854902 0.666667 0 1
0.854902 0.666667 0 1
0.854902 0.666667 0 1
0.854902 0.666667 0 1
0.854902 0.666667 0 1
0.854902 0.666667 0 1
0.854902 0.666667 0 1
0.854902 0.666667 0 1
0.854902 0.666667 0 1
0.854902 0.666667 0 1
0.854902 0.666667 0 1
0.854902 0.666667 0 1
0.854902 0.666667 0 1
0.854902 0.666667 0 1
0.854902 0.666667 0 1
0.854902 0.666667 0 1
0.854902 0.666667 0 1
0.854902 0.666667 0 1
0.854902 0.666667 0 1
0.854902 0.666667 0 1
0.854902 0.666667 0 1
0.854902 0.666667 0 1
0.854902 0.666667 0 1
0.854902 0.666667 0 1
0.854902 0.666667 0 1
0.854902 0.666667 0 1
0.854902 0.666667 0 1
0.854902 0.666667 0 1
0.854902 0.666667 0 1
0.854902 0.666667 0 1
0.854902 0.666667 0 1
0.854902 0.666667 0 1
0.854902 0.666667 0 1
0.854902 0.666667 0 1
0.854902 0.666667 0 1
0.854902 0.666667 0 1
0.854902 0.666667 0 1
0.854902 0.666667 0 1
0.854902 0.666667 0 1
0.854902 0.666667 0 1
0.854902 0.666667 0 1
0.854902 0.666667 0 1
0.854902 0.666667 0 1
0.854902 0.666667 0 1
0.854902 0.666667 0 1
0.854902 0.666667 0 1
0.854902 0.666667 0 1
0.854902 0.666667 0 1
0.854902 0.666667 0 1
0.854902 0.666667 0 1
0.854902 0.666667 0 1
0.854902 0.666667 0 1
0.854902 0.666667 0 1
0.854902 0.666667 0 1
0.854902 0.666667 0 1
0.854902 0.666667 0 1
0.854902 0.666667 0 1
0.854902 0.666667 0 1
0.854902 0.666667 0 1
0.854902 0.666667 0 1
0.854902 0.666667 0 1
0.854902 0.666667 0 1
0.854902 0.666667 0 1
0.854902 0.666667 0 1
0.854902 0.666667 0 1
0.854902 0.666667 0 1
0.854902 0.666667 0 1
0.854902 0.666667 0 1
0.854902 0.666667 0 1
0.854902 0.666667 0 1
0.854902 0.666667 0 1
0.854902 0.666667 0 1
0.854902 0.666667 0 1
0.854902 0.666667 0 1
0.854902 0.666667 0 1
0.854902 0.666667 0 1
0.854902 0.666667 0 1
0.854902 0.666667 0 1
0.854902 0.666667 0 1
0.854902 0.666667 0 1
0.854902 0.666667 0 1
0.854902 0.666667 0 1
0.854902 0.666667 0 1
0.854902 0.666667 0 1
0.854902 0.666667 0 1
0.854902 0.666667 0 1
0.854902 0.666667 0 1
0.854902 0.666667 0 1
0.854902 0.666667 0 1
0.854902 0.666667 0 1
0.854902 0.666667 0 1
0.854902 0.666667 0 1
0.854902 0.666667 0 1
0.854902 0.666667 0 1
0.854902 0.666667 0 1
0.854902 0.666667 0 1
0.854902 0.666667 0 1
0.854902 0.666667 0 1
0.854902 0.666667 0 1
0.854902 0.666667 0 1
0.854902 0.666667 0 1
0.854902 0.666667 0 1
0.854902 0.666667 0 1
0.854902 0.666667 0 1
0.854902 0.666667 0 1
0.854902 0.666667 0 1
0.854902 0.666667 0 1
0.854902 0.666667 0 1
0.854902 0.666667 0 1
0.854902 0.666667 0 1
0.854902 0.666667 0 1
0.854902 0.666667 0 1
0.854902 0.666667 0 1
0.854902 0.666667 0 1
0.854902 0.666667 0 1
0.854902 0.666667 0 1
0.854902 0.666667 0 1
0.854902 0.666667 0 1
0.854902 0.666667 0 1
0.854902 0.666667 0 1
0.854902 0.666667 0 1
0.854902 0.666667 0 1
0.854902 0.666667 0 1
0.854902 0.666667 0 1
0.854902 0.666667 0 1
0.854902 0.666667 0 1
0.854902 0.666667 0 1
0.854902 0.666667 0 1
0.854902 0.666667 0 1
0.854902 0.666667 0 1
0.854902 0.666667 0 1
0.854902 0.666667 0 1
0.854902 0.666667 0 1
0.854902 0.666667 0 1
0.854902 0.666667 0 1
0.854902 0.666667 0 1
0.854902 0.666667 0 1
0.854902 0.666667 0 1
0.854902 0.666667 0 1
0.854902 0.666667 0 1
0.854902 0.666667 0 1
0.854902 0.666667 0 1
0.854902 0.666667 0 1
0.854902 0.666667 0 1
0.854902 0.666667 0 1
0.854902 0.666667 0 1
0.854902 0.666667 0 1
0.854902 0.666667 0 1
0.854902 0.666667 0 1
0.854902 0.666667 0 1
0.854902 0.666667 0 1
0.854902 0.666667 0 1
0.854902 0.666667 0 1
0.854902 0.666667 0 1
0.854902 0.666667 0 1
0.854902 0.666667 0 1
0.854902 0.666667 0 1
0.854902 0.666667 0 1
0.854902 0.666667 0 1
0.854902 0.666667 0 1
0.854902 0.666667 0 1
0.854902 0.666667 0 1
0.854902 0.666667 0 1
0.854902 0.666667 0 1
0.854902 0.666667 0 1
0.854902 0.666667 0 1
0.854902 0.666667 0 1
0.854902 0.666667 0 1
0.854902 0.666667 0 1
0.854902 0.666667 0 1
0.854902 0.666667 0 1
0.854902 0.666667 0 1
0.854902 0.666667 0 1
0.854902 0.666667 0 1
0.854902 0.666667 0 1
0.854902 0.666667 0 1
0.854902 0.666667 0 1
0.854902 0.666667 0 1
0.854902 0.666667 0 1
0.854902 0.666667 0 1
0.854902 0.666667 0 1
0.854902 0.666667 0 1
0.854902 0.666667 0 1
0.854902 0.666667 0 1
0.854902 0.666667 0 1
0.854902 0.666667 0 1
0.854902 0.666667 0 1
0.854902 0.666667 0 1
0.854902 0.666667 0 1
0.854902 0.666667 0 1
0.854902 0.666667 0 1
0.854902 0.666667 0 1
0.854902 0.666667 0 1
0.854902 0.666667 0 1
0.854902 0.666667 0 1
0.854902 0.666667 0 1
0.854902 0.666667 0 1
0.854902 0.666667 0 1
0.854902 0.666667 0 1
0.854902 0.666667 0 1
0.854902 0.666667 0 1
0.854902 0.666667 0 1
0.854902 0.666667 0 1
0.854902 0.666667 0 1
0.854902 0.666667 0 1
0.854902 0.666667 0 1
0.854902 0.666667 0 1
0.854902 0.666667 0 1
0.854902 0.666667 0 1
0.854902 0.666667 0 1
0.854902 0.666667 0 1
0.854902 0.666667 0 1
0.854902 0.666667 0 1
0.854902 0.666667 0 1
0.854902 0.666667 0 1
0.854902 0.666667 0 1
0.854902 0.666667 0 1
0.854902 0.666667 0 1
0.854902 0.666667 0 1
0.854902 0.666667 0 1
0.854902 0.666667 0 1
0.854902 0.666667 0 1
0.854902 0.666667 0 1
0.854902 0.666667 0 1
0.854902 0.666667 0 1
0.854902 0.666667 0 1
0.854902 0.666667 0 1
0.854902 0.666667 0 1
0.854902 0.666667 0 1
0.854902 0.666667 0 1
0.854902 0.666667 0 1
0.854902 0.666667 0 1
0.854902 0.666667 0 1
0.854902 0.666667 0 1
0.854902 0.666667 0 1
0.854902 0.666667 0 1
0.854902 0.666667 0 1
0.854902 0.666667 0 1
0.854902 0.666667 0 1
0.854902 0.666667 0 1
0.854902 0.666667 0 1
0.854902 0.666667 0 1
0.854902 0.666667 0 1
0.854902 0.666667 0 1
0.854902 0.666667 0 1
0.854902 0.666667 0 1
0.854902 0.666667 0 1
0.854902 0.666667 0 1
0.854902 0.666667 0 1
0.854902 0.666667 0 1
0.854902 0.666667 0 1
0.854902 0.666667 0 1
0.854902 0.666667 0 1
0.854902 0.666667 0 1
0.854902 0.666667 0 1
0.854902 0.666667 0 1
0.854902 0.666667 0 1
0.854902 0.666667 0 1
0.854902 0.666667 0 1
0.854902 0.666667 0 1
0.854902 0.666667 0 1
0.854902 0.666667 0 1
0.854902 0.666667 0 1
0.854902 0.666667 0 1
0.854902 0.666667 0 1
0.854902 0.666667 0 1
0.854902 0.666667 0 1
0.854902 0.666667 0 1
0.854902 0.666667 0 1
0.854902 0.666667 0 1
0.854902 0.666667 0 1
0.854902 0.666667 0 1
0.854902 0.666667 0 1
0.854902 0.666667 0 1
0.854902 0.666667 0 1
0.854902 0.666667 0 1
0.854902 0.666667 0 1
0.854902 0.666667 0 1
0.854902 0.666667 0 1
0.854902 0.666667 0 1
0.854902 0.666667 0 1
0.854902 0.666667 0 1
0.854902 0.666667 0 1
0.854902 0.666667 0 1
0.854902 0.666667 0 1
0.854902 0.666667 0 1
0.854902 0.666667 0 1
0.854902 0.666667 0 1
0.854902 0.666667 0 1
0.854902 0.666667 0 1
0.854902 0.666667 0 1
0.854902 0.666667 0 1
0.854902 0.666667 0 1
0.854902 0.666667 0 1
0.854902 0.666667 0 1
0.854902 0.666667 0 1
0.854902 0.666667 0 1
0.854902 0.666667 0 1
0.854902 0.666667 0 1
0.854902 0.666667 0 1
0.854902 0.666667 0 1
0.854902 0.666667 0 1
0.854902 0.666667 0 1
0.854902 0.666667 0 1
0.854902 0.666667 0 1
0.854902 0.666667 0 1
0.854902 0.666667 0 1
0.854902 0.666667 0 1
0.854902 0.666667 0 1
0.854902 0.666667 0 1
0.854902 0.666667 0 1
0.854902 0.666667 0 1
0.854902 0.666667 0 1
0.854902 0.666667 0 1
0.854902 0.666667 0 1
0.854902 0.666667 0 1
0.854902 0.666667 0 1
0.854902 0.666667 0 1
0.854902 0.666667 0 1
0.854902 0.666667 0 1
0.854902 0.666667 0 1
0.854902 0.666667 0 1
0.854902 0.666667 0 1
0.854902 0.666667 0 1
0.854902 0.666667 0 1
0.854902 0.666667 0 1
0.854902 0.666667 0 1
0.854902 0.666667 0 1
0.854902 0.666667 0 1
0.854902 0.666667 0 1
0.854902 0.666667 0 1
0.854902 0.666667 0 1
0.854902 0.666667 0 1
0.854902 0.666667 0 1
0.854902 0.666667 0 1
0.854902 0.666667 0 1
0.854902 0.666667 0 1
0.854902 0.666667 0 1
0.854902 0.666667 0 1
0.854902 0.666667 0 1
0.854902 0.666667 0 1
0.854902 0.666667 0 1
0.854902 0.666667 0 1
0.854902 0.666667 0 1
0.854902 0.666667 0 1
0.854902 0.666667 0 1
0.854902 0.666667 0 1
0.854902 0.666667 0 1
0.854902 0.666667 0 1
0.854902 0.666667 0 1
0.854902 0.666667 0 1
0.854902 0.666667 0 1
0.854902 0.666667 0 1
0.854902 0.666667 0 1
0.854902 0.666667 0 1
0.854902 0.666667 0 1
0.854902 0.666667 0 1
0.854902 0.666667 0 1
0.854902 0.666667 0 1
0.854902 0.666667 0 1
0.854902 0.666667 0 1
0.854902 0.666667 0 1
0.854902 0.666667 0 1
0.854902 0.666667 0 1
0.854902 0.666667 0 1
0.854902 0.666667 0 1
0.854902 0.666667 0 1
0.854902 0.666667 0 1
0.854902 0.666667 0 1
0.854902 0.666667 0 1
0.854902 0.666667 0 1
0.854902 0.666667 0 1
0.854902 0.666667 0 1
0.854902 0.666667 0 1
0.854902 0.666667 0 1
0.854902 0.666667 0 1
0.854902 0.666667 0 1
0.854902 0.666667 0 1
0.854902 0.666667 0 1
0.854902 0.666667 0 1
0.854902 0.666667 0 1
0.854902 0.666667 0 1
0.854902 0.666667 0 1
0.854902 0.666667 0 1
0.854902 0.666667 0 1
0.854902 0.666667 0 1
0.854902 0.666667 0 1
0.854902 0.666667 0 1
0.854902 0.666667 0 1
0.854902 0.666667 0 1
0.854902 0.666667 0 1
0.854902 0.666667 0 1
0.854902 0.666667 0 1
0.854902 0.666667 0 1
0.854902 0.666667 0 1
0.854902 0.666667 0 1
0.854902 0.666667 0 1
0.854902 0.666667 0 1
0.854902 0.666667 0 1
0.854902 0.666667 0 1
0.854902 0.666667 0 1
0.854902 0.666667 0 1
0.854902 0.666667 0 1
0.854902 0.666667 0 1
0.854902 0.666667 0 1
0.854902 0.666667 0 1
0.854902 0.666667 0 1
0.854902 0.666667 0 1
0.854902 0.666667 0 1
0.854902 0.666667 0 1
0.854902 0.666667 0 1
0.854902 0.666667 0 1
0.854902 0.666667 0 1
0.854902 0.666667 0 1
0.854902 0.666667 0 1
0.854902 0.666667 0 1
0.854902 0.666667 0 1
0.854902 0.666667 0 1
0.854902 0.666667 0 1
0.854902 0.666667 0 1
0.854902 0.666667 0 1
0.854902 0.666667 0 1
0.854902 0.666667 0 1
0.854902 0.666667 0 1
0.854902 0.666667 0 1
0.854902 0.666667 0 1
0.854902 0.666667 0 1
0.854902 0.666667 0 1
0.854902 0.666667 0 1
0.854902 0.666667 0 1
0.854902 0.666667 0 1
0.854902 0.666667 0 1
0.854902 0.666667 0 1
0.854902 0.666667 0 1
0.854902 0.666667 0 1
0.854902 0.666667 0 1
0.854902 0.666667 0 1
0.854902 0.666667 0 1
0.854902 0.666667 0 1
0.854902 0.666667 0 1
0.854902 0.666667 0 1
0.854902 0.666667 0 1
0.854902 0.666667 0 1
0.854902 0.666667 0 1
0.854902 0.666667 0 1
0.854902 0.666667 0 1
0.854902 0.666667 0 1
0.854902 0.666667 0 1
0.854902 0.666667 0 1
0.854902 0.666667 0 1
0.854902 0.666667 0 1
0.854902 0.666667 0 1
0.854902 0.666667 0 1
0.854902 0.666667 0 1
0.854902 0.666667 0 1
0.854902 0.666667 0 1
0.854902 0.666667 0 1
0.854902 0.666667 0 1
0.854902 0.666667 0 1
0.854902 0.666667 0 1
0.854902 0.666667 0 1
0.854902 0.666667 0 1
0.854902 0.666667 0 1
0.854902 0.666667 0 1
0.854902 0.666667 0 1
0.854902 0.666667 0 1
0.854902 0.666667 0 1
0.854902 0.666667 0 1
0.854902 0.666667 0 1
0.854902 0.666667 0 1
0.854902 0.666667 0 1
0.854902 0.666667 0 1
0.854902 0.666667 0 1
0.854902 0.666667 0 1
0.854902 0.666667 0 1
0.854902 0.666667 0 1
0.854902 0.666667 0 1
0.854902 0.666667 0 1
0.854902 0.666667 0 1
0.854902 0.666667 0 1
0.854902 0.666667 0 1
0.854902 0.666667 0 1
0.854902 0.666667 0 1
0.854902 0.666667 0 1
0.854902 0.666667 0 1
0.854902 0.666667 0 1
0.854902 0.666667 0 1
0.854902 0.666667 0 1
0.854902 0.666667 0 1
0.854902 0.666667 0 1
0.854902 0.666667 0 1
0.854902 0.666667 0 1
0.854902 0.666667 0 1
0.854902 0.666667 0 1
0.854902 0.666667 0 1
0.854902 0.666667 0 1
0.854902 0.666667 0 1
0.854902 0.666667 0 1
0.854902 0.666667 0 1
0.854902 0.666667 0 1
0.854902 0.666667 0 1
0.854902 0.666667 0 1
0.854902 0.666667 0 1
0.854902 0.666667 0 1
0.854902 0.666667 0 1
0.854902 0.666667 0 1
0.854902 0.666667 0 1
0.854902 0.666667 0 1
0.854902 0.666667 0 1
0.854902 0.666667 0 1
0.854902 0.666667 0 1
0.854902 0.666667 0 1
0.854902 0.666667 0 1
0.854902 0.666667 0 1
0.854902 0.666667 0 1
0.854902 0.666667 0 1
0.854902 0.666667 0 1
0.854902 0.666667 0 1
0.854902 0.666667 0 1
0.854902 0.666667 0 1
0.854902 0.666667 0 1
0.854902 0.666667 0 1
0.854902 0.666667 0 1
0.854902 0.666667 0 1
0.854902 0.666667 0 1
0.854902 0.666667 0 1
0.854902 0.666667 0 1
0.854902 0.666667 0 1
0.854902 0.666667 0 1
0.854902 0.666667 0 1
0.854902 0.666667 0 1
0.854902 0.666667 0 1
0.854902 0.666667 0 1
0.854902 0.666667 0 1
0.854902 0.666667 0 1
0.854902 0.666667 0 1
0.854902 0.666667 0 1
0.854902 0.666667 0 1
0.854902 0.666667 0 1
0.854902 0.666667 0 1
0.854902 0.666667 0 1
0.854902 0.666667 0 1
0.854902 0.666667 0 1
0.854902 0.666667 0 1
0.854902 0.666667 0 1
0.854902 0.666667 0 1
0.854902 0.666667 0 1
0.854902 0.666667 0 1
0.854902 0.666667 0 1
0.854902 0.666667 0 1
0.854902 0.666667 0 1
0.854902 0.666667 0 1
0.854902 0.666667 0 1
0.854902 0.666667 0 1
0.854902 0.666667 0 1
0.854902 0.666667 0 1
0.854902 0.666667 0 1
0.854902 0.666667 0 1
0.854902 0.666667 0 1
0.854902 0.666667 0 1
0.854902 0.666667 0 1
0.854902 0.666667 0 1
0.854902 0.666667 0 1
0.854902 0.666667 0 1
0.854902 0.666667 0 1
0.854902 0.666667 0 1
0.854902 0.666667 0 1
0.854902 0.666667 0 1
0.854902 0.666667 0 1
0.854902 0.666667 0 1
0.854902 0.666667 0 1
0.854902 0.666667 0 1
0.854902 0.666667 0 1
0.854902 0.666667 0 1
0.854902 0.666667 0 1
0.854902 0.666667 0 1
0.854902 0.666667 0 1
0.854902 0.666667 0 1
0.854902 0.666667 0 1
0.854902 0.666667 0 1
0.854902 0.666667 0 1
0.854902 0.666667 0 1
0.854902 0.666667 0 1
0.854902 0.666667 0 1
0.854902 0.666667 0 1
0.854902 0.666667 0 1
0.854902 0.666667 0 1
0.854902 0.666667 0 1
0.854902 0.666667 0 1
0.854902 0.666667 0 1
0.854902 0.666667 0 1
0.854902 0.666667 0 1
0.854902 0.666667 0 1
0.854902 0.666667 0 1
0.854902 0.666667 0 1
0.854902 0.666667 0 1
0.854902 0.666667 0 1
0.854902 0.666667 0 1
0.854902 0.666667 0 1
0.854902 0.666667 0 1
0.854902 0.666667 0 1
0.854902 0.666667 0 1
0.854902 0.666667 0 1
0.854902 0.666667 0 1
0.854902 0.666667 0 1
0.854902 0.666667 0 1
0.854902 0.666667 0 1
0.854902 0.666667 0 1
0.854902 0.666667 0 1
0.854902 0.666667 0 1
0.854902 0.666667 0 1
0.854902 0.666667 0 1
0.854902 0.666667 0 1
0.854902 0.666667 0 1
0.854902 0.666667 0 1
0.854902 0.666667 0 1
0.854902 0.666667 0 1
0.854902 0.666667 0 1
0.854902 0.666667 0 1
0.854902 0.666667 0 1
0.854902 0.666667 0 1
0.854902 0.666667 0 1
0.854902 0.666667 0 1
0.854902 0.666667 0 1
0.854902 0.666667 0 1
0.854902 0.666667 0 1
0.854902 0.666667 0 1
0.854902 0.666667 0 1
0.854902 0.666667 0 1
0.854902 0.666667 0 1
0.854902 0.666667 0 1
0.854902 0.666667 0 1
0.854902 0.666667 0 1
0.854902 0.666667 0 1
0.854902 0.666667 0 1
0.854902 0.666667 0 1
0.854902 0.666667 0 1
0.854902 0.666667 0 1
0.854902 0.666667 0 1
0.854902 0.666667 0 1
0.854902 0.666667 0 1
0.854902 0.666667 0 1
0.854902 0.666667 0 1
0.854902 0.666667 0 1
0.854902 0.666667 0 1
0.854902 0.666667 0 1
0.854902 0.666667 0 1
0.854902 0.666667 0 1
0.854902 0.666667 0 1
0.854902 0.666667 0 1
0.854902 0.666667 0 1
0.854902 0.666667 0 1
0.854902 0.666667 0 1
0.854902 0.666667 0 1
0.854902 0.666667 0 1
0.854902 0.666667 0 1
0.854902 0.666667 0 1
0.854902 0.666667 0 1
0.854902 0.666667 0 1
0.854902 0.666667 0 1
0.854902 0.666667 0 1
0.854902 0.666667 0 1
0.854902 0.666667 0 1
0.854902 0.666667 0 1
0.854902 0.666667 0 1
0.854902 0.666667 0 1
0.854902 0.666667 0 1
0.854902 0.666667 0 1