# vtk DataFile Version 3.0
Gocad TSurf to VTK
ASCII
DATASET POLYDATA
POINTS 860 float
21570046.844 4569511.469 -2000.000
21570054.766 4569406.211 -2500.000
21569694.969 4569141.086 -2000.000
21569560.906 4568977.188 -2500.000
21569690.125 4569234.000 -1500.000
21570332.547 4569949.438 -2500.000
21570281.406 4570030.000 -2000.000
21570383.688 4569868.871 -3000.000
21570457.750 4570288.637 -3000.000
21570062.688 4569300.953 -3000.000
21569704.641 4568955.266 -3000.000
21570233.984 4569539.234 -3268.042
21570084.125 4569276.832 -3256.736
21570410.563 4569835.609 -3280.327
21570442.484 4570008.648 -3292.209
21570468.563 4570335.152 -3316.889
21570182.547 4570758.734 -3370.072
21570097.438 4570894.555 -3386.688
21570136.766 4570794.824 -3000.000
21570388.094 4570264.262 -2500.000
21570013.297 4571152.859 -3000.000
21569829.438 4570875.391 -2500.000
21570070.625 4570972.012 -3394.726
21570124.141 4571051.578 -3397.621
21570272.563 4571547.934 -3000.000
21570316.188 4571579.023 -3427.570
21570318.219 4571620.281 -3430.772
21570284.906 4571844.238 -3000.000
21570209.078 4571813.688 -2500.000
21570306.688 4571771.945 -3443.801
21570297.797 4571891.973 -3460.843
21570266.797 4571913.207 -3463.000
21569865.141 4572128.199 -3000.000
21570173.203 4571973.047 -3468.898
21569978.375 4572098.543 -3491.939
21569945.297 4572120.203 -3500.000
21569826.656 4572195.422 -3500.000
21569567.391 4572297.273 -3500.000
21569886.656 4572159.121 -3514.348
21569854.813 4572181.082 -3528.958
21569823.344 4572201.195 -3542.949
21569620.922 4572288.879 -3621.234
21569536.953 4572318.625 -3651.846
21569234.047 4572300.363 -3500.000
21569519.453 4572264.004 -3000.000
21569331.516 4572328.469 -3709.052
21569197.828 4572311.879 -3739.815
21568842.063 4572173.813 -3500.000
21568976.234 4572202.273 -3000.000
21569014.625 4572255.910 -3772.632
21568758.203 4572156.027 -3812.509
21568645.344 4572100.703 -3826.869
21568527.234 4572016.402 -3500.000
21568330.875 4571935.094 -3863.655
21568228.406 4571878.852 -3875.000
21567990.188 4571717.012 -3500.000
21568556.469 4571992.391 -3000.000
21568192.844 4571859.367 -3879.418
21567919.891 4571713.887 -3914.605
21567585.563 4571533.070 -3956.875
21567301.891 4571349.715 -3500.000
21568074.969 4571720.777 -3000.000
21567529.813 4571503.828 -3964.213
21567297.172 4571398.273 -4000.000
21567244.875 4571373.727 -4000.000
21566985.609 4571262.613 -4000.000
21567241.672 4571373.188 -4008.566
21566992.875 4571270.582 -4050.073
21566895.766 4571245.027 -4070.834
21566751.031 4571204.789 -4101.098
21566664.625 4571163.844 -4000.000
21566912.984 4571183.047 -3500.000
21566473.609 4571148.371 -4304.945
21566322.594 4571120.480 -4395.089
21566702.672 4571199.863 -4171.212
21566214.000 4571052.730 -4000.000
21566141.203 4571076.641 -4500.000
21565879.188 4570999.578 -4500.000
21565794.219 4570947.789 -4000.000
21565873.000 4571011.816 -4655.120
21565780.969 4571005.883 -4713.650
21565521.156 4570940.938 -4500.000
21565604.250 4570988.516 -4824.114
21565192.531 4570964.949 -5000.000
21565178.547 4570903.898 -4500.000
21565332.391 4570980.066 -5000.000
21565392.969 4570867.539 -4000.000
21564834.500 4570878.523 -5000.000
21564752.625 4570511.910 -4500.000
21564985.563 4570799.637 -4000.000
21564711.047 4570705.680 -5000.000
21564661.656 4570495.797 -5000.000
21564913.109 4570135.355 -4500.000
21565115.188 4570052.699 -4000.000
21564834.500 4570088.379 -5000.000
21564871.234 4570049.813 -5000.000
21565031.656 4569919.645 -4852.185
21565361.125 4569706.547 -4566.292
21565403.875 4569687.813 -4500.000
21565442.359 4569756.398 -4000.000
21565401.391 4569683.383 -4532.290
21565442.750 4569667.703 -4500.000
21565611.719 4569603.648 -4368.111
21565788.453 4569534.254 -4229.385
21565886.813 4569521.820 -4000.000
21566110.500 4569423.734 -3500.000
21565904.953 4569448.418 -4124.874
21565917.297 4569420.793 -4107.765
21565975.031 4569297.602 -4000.000
21566051.359 4569205.719 -3891.454
21566053.844 4569175.699 -3875.000
21566054.672 4569123.707 -3869.594
21566110.500 4569062.613 -3500.000
21566186.031 4569461.453 -3000.000
21566071.344 4568894.664 -3843.435
21566127.813 4568667.309 -3810.318
21566249.391 4568420.617 -3500.000
21566186.031 4568979.957 -3000.000
21566203.797 4568392.039 -3768.858
21566293.156 4568070.941 -3720.364
21566394.469 4567837.266 -3500.000
21566334.172 4568473.770 -3000.000
21566380.953 4567782.863 -3675.490
21566683.219 4567050.254 -3547.221
21566721.625 4566973.043 -3500.000
21566526.875 4567856.781 -2500.000
21566688.688 4567036.934 -3545.043
21566706.625 4566991.145 -3537.702
21566718.641 4566967.629 -3533.444
21566830.438 4566815.883 -3500.000
21567173.703 4566683.594 -3000.000
21566826.281 4567057.375 -2500.000
21566899.672 4566730.355 -3480.064
21567206.078 4566641.688 -3418.539
21567258.719 4566649.199 -3410.062
21567470.016 4566720.633 -3000.000
21567579.375 4566866.012 -2500.000
21567569.813 4566726.859 -3363.038
21567630.516 4567115.703 -3000.000
21567613.672 4566833.402 -3365.211
21567659.594 4567036.297 -3375.900
21567637.188 4567553.082 -3427.396
21567635.141 4567576.844 -3429.938
21567568.781 4567745.352 -3000.000
21567629.625 4567642.121 -3437.531
21567624.859 4567692.371 -3443.467
21567519.391 4568202.156 -3000.000
21567471.344 4568233.336 -2500.000
21567594.734 4568173.832 -3497.571
21567596.094 4568175.273 -3497.473
21567791.016 4568486.113 -3000.000
21567879.984 4568427.188 -3472.093
21567922.438 4568434.898 -3465.267
21568420.656 4568584.883 -3000.000
21567875.688 4568582.109 -2500.000
21568528.781 4568552.531 -3368.530
21568814.563 4568625.625 -3324.722
21569272.531 4568782.418 -3000.000
21568597.922 4568699.398 -2500.000
21568839.844 4568632.977 -3320.937
21569177.938 4568731.082 -3272.562
21569353.531 4568780.422 -3264.933
21569560.547 4568864.133 -3258.004
21569727.281 4568931.551 -3252.424
21569903.266 4569101.094 -3254.491
21569236.828 4568847.551 -2500.000
21569417.188 4568999.109 -2000.000
21568775.188 4568813.918 -2000.000
21568275.172 4568727.492 -2000.000
21568952.453 4568928.438 -1500.000
21569273.453 4569021.031 -1500.000
21568202.438 4568798.801 -1500.000
21568129.688 4568870.105 -1000.000
21569129.719 4569042.953 -1000.000
21567589.969 4568529.961 -2000.000
21567388.922 4568573.805 -1000.000
21567467.844 4567814.203 -1500.000
21567408.234 4568629.156 -641.654
21567275.906 4568298.117 -643.993
21568251.438 4568937.684 -597.099
21567541.266 4568730.461 -273.233
21568305.984 4568994.297 -204.227
21568940.375 4569102.652 -198.100
21568260.234 4568984.145 -212.830
21567979.875 4568906.180 -264.075
21568290.453 4569031.422 174.348
21568255.422 4569021.672 167.944
21568427.734 4569061.875 200.161
21568437.500 4569111.180 582.880
21568494.906 4569072.844 208.703
21568527.078 4569125.801 600.215
21568571.859 4569133.109 608.881
21568482.281 4569118.488 591.546
21568616.656 4569140.422 611.604
21568778.500 4569121.535 206.752
21568661.438 4569147.730 609.003
21568879.281 4569137.984 200.898
21568706.219 4569155.039 606.402
21568946.469 4569148.949 196.996
21569098.188 4569149.648 -210.182
21568840.594 4569176.973 598.596
21568885.375 4569184.281 595.995
21568795.797 4569169.660 601.198
21568751.016 4569162.352 603.799
21568930.688 4569202.297 591.905
21568980.438 4569162.461 193.929
21568976.016 4569220.316 587.814
21569116.391 4569216.512 181.659
21569111.953 4569274.363 575.546
21569213.141 4569260.844 172.220
21569223.688 4569211.289 -221.947
21569202.594 4569310.398 567.366
21569157.281 4569292.383 571.455
21569240.953 4569333.473 562.961
21569279.297 4569356.551 559.533
21569270.672 4569295.457 167.079
21569317.656 4569379.625 556.105
21569356.000 4569402.703 552.678
21569394.359 4569425.777 549.250
21569467.094 4569401.063 161.938
21569539.828 4569376.344 -225.375
21569432.719 4569448.852 545.823
21569471.063 4569471.930 542.395
21569509.422 4569495.004 538.968
21569540.469 4569525.750 534.800
21569599.953 4569499.098 147.974
21569571.500 4569556.492 530.632
21569602.547 4569587.238 526.464
21569633.594 4569617.984 522.296
21569646.516 4569545.215 141.722
21569690.484 4569503.191 -243.020
21569664.641 4569648.730 518.128
21569695.672 4569679.473 513.960
21569716.359 4569614.391 132.344
21569726.719 4569710.219 509.792
21569754.844 4569749.809 504.661
21569887.172 4569831.926 116.950
21569782.984 4569789.398 499.529
21569949.188 4569815.074 -257.933
21569929.375 4569891.313 109.252
21569983.047 4569758.633 -627.683
21570118.063 4570165.188 -634.471
21569680.125 4569407.367 -620.468
21570030.984 4569721.984 -1000.000
21569113.953 4569096.301 -605.091
21569685.297 4569326.910 -1000.000
21570119.156 4569758.707 -1500.000
21570179.141 4570191.133 -1000.000
21570230.281 4570110.566 -1500.000
21569912.156 4570651.801 -643.012
21570050.438 4570115.977 -266.134
21569672.953 4570722.012 -1000.000
21569467.891 4570675.742 -642.976
21570103.734 4570610.582 -1500.000
21569569.750 4570940.840 -1500.000
21570275.234 4570418.902 -2000.000
21569694.969 4570820.148 -2000.000
21570125.750 4570733.410 -2500.000
21569892.500 4571085.590 -2000.000
21569856.797 4571163.070 -1500.000
21570193.656 4571532.816 -2500.000
21570114.734 4571517.703 -2000.000
21569849.297 4572017.719 -2000.000
21570057.422 4571752.594 -1500.000
21569789.313 4572122.344 -2500.000
21569540.641 4572184.387 -2000.000
21569530.047 4572224.195 -2500.000
21569017.688 4572180.984 -2500.000
21569059.156 4572159.695 -2000.000
21568633.219 4571955.984 -2000.000
21568594.844 4571974.188 -2500.000
21569100.609 4572138.406 -1500.000
21568776.531 4571990.250 -1500.000
21569498.766 4572147.664 -1500.000
21569561.828 4572104.770 -1000.000
21569841.375 4571962.477 -1500.000
21569833.453 4571907.234 -1000.000
21569981.594 4571722.043 -1000.000
21569934.547 4571700.336 -641.390
21569906.031 4571478.402 -646.448
21569797.438 4571871.777 -642.156
21569718.188 4571859.305 -285.801
21569528.859 4572054.406 -644.132
21569696.563 4571870.797 -286.417
21569142.063 4572117.117 -1000.000
21569170.906 4572073.559 -646.550
[...]
POINT_DATA 860
COLOR_SCALARS GocadColor 4
0.741176 0.321569 0.741176 1
0.741176 0.321569 0.741176 1
0.741176 0.321569 0.741176 1
0.741176 0.321569 0.741176 1
0.741176 0.321569 0.741176 1
0.741176 0.321569 0.741176 1
0.741176 0.321569 0.741176 1
0.741176 0.321569 0.741176 1
0.741176 0.321569 0.741176 1
0.741176 0.321569 0.741176 1
0.741176 0.321569 0.741176 1
0.741176 0.321569 0.741176 1
0.741176 0.321569 0.741176 1
0.741176 0.321569 0.741176 1
0.741176 0.321569 0.741176 1
0.741176 0.321569 0.741176 1
0.741176 0.321569 0.741176 1
0.741176 0.321569 0.741176 1
0.741176 0.321569 0.741176 1
0.741176 0.321569 0.741176 1
0.741176 0.321569 0.741176 1
0.741176 0.321569 0.741176 1
0.741176 0.321569 0.741176 1
0.741176 0.321569 0.741176 1
0.741176 0.321569 0.741176 1
0.741176 0.321569 0.741176 1
0.741176 0.321569 0.741176 1
0.741176 0.321569 0.741176 1
0.741176 0.321569 0.741176 1
0.741176 0.321569 0.741176 1
0.741176 0.321569 0.741176 1
0.741176 0.321569 0.741176 1
0.741176 0.321569 0.741176 1
0.741176 0.321569 0.741176 1
0.741176 0.321569 0.741176 1
0.741176 0.321569 0.741176 1
0.741176 0.321569 0.741176 1
0.741176 0.321569 0.741176 1
0.741176 0.321569 0.741176 1
0.741176 0.321569 0.741176 1
0.741176 0.321569 0.741176 1
0.741176 0.321569 0.741176 1
0.741176 0.321569 0.741176 1
0.741176 0.321569 0.741176 1
0.741176 0.321569 0.741176 1
0.741176 0.321569 0.741176 1
0.741176 0.321569 0.741176 1
0.741176 0.321569 0.741176 1
0.741176 0.321569 0.741176 1
0.741176 0.321569 0.741176 1
0.741176 0.321569 0.741176 1
0.741176 0.321569 0.741176 1
0.741176 0.321569 0.741176 1
0.741176 0.321569 0.741176 1
0.741176 0.321569 0.741176 1
0.741176 0.321569 0.741176 1
0.741176 0.321569 0.741176 1
0.741176 0.321569 0.741176 1
0.741176 0.321569 0.741176 1
0.741176 0.321569 0.741176 1
0.741176 0.321569 0.741176 1
0.741176 0.321569 0.741176 1
0.741176 0.321569 0.741176 1
0.741176 0.321569 0.741176 1
0.741176 0.321569 0.741176 1
0.741176 0.321569 0.741176 1
0.741176 0.321569 0.741176 1
0.741176 0.321569 0.741176 1
0.741176 0.321569 0.741176 1
0.741176 0.321569 0.741176 1
0.741176 0.321569 0.741176 1
0.741176 0.321569 0.741176 1
0.741176 0.321569 0.741176 1
0.741176 0.321569 0.741176 1
0.741176 0.321569 0.741176 1
0.741176 0.321569 0.741176 1
0.741176 0.321569 0.741176 1
0.741176 0.321569 0.741176 1
0.741176 0.321569 0.741176 1
0.741176 0.321569 0.741176 1
0.741176 0.321569 0.741176 1
0.741176 0.321569 0.741176 1
0.741176 0.321569 0.741176 1
0.741176 0.321569 0.741176 1
0.741176 0.321569 0.741176 1
0.741176 0.321569 0.741176 1
0.741176 0.321569 0.741176 1
0.741176 0.321569 0.741176 1
0.741176 0.321569 0.741176 1
0.741176 0.321569 0.741176 1
0.741176 0.321569 0.741176 1
0.741176 0.321569 0.741176 1
0.741176 0.321569 0.741176 1
0.741176 0.321569 0.741176 1
0.741176 0.321569 0.741176 1
0.741176 0.321569 0.741176 1
0.741176 0.321569 0.741176 1
0.741176 0.321569 0.741176 1
0.741176 0.321569 0.741176 1
0.741176 0.321569 0.741176 1
0.741176 0.321569 0.741176 1
0.741176 0.321569 0.741176 1
0.741176 0.321569 0.741176 1
0.741176 0.321569 0.741176 1
0.741176 0.321569 0.741176 1
0.741176 0.321569 0.741176 1
0.741176 0.321569 0.741176 1
0.741176 0.321569 0.741176 1
0.741176 0.321569 0.741176 1
0.741176 0.321569 0.741176 1
0.741176 0.321569 0.741176 1
0.741176 0.321569 0.741176 1
0.741176 0.321569 0.741176 1
0.741176 0.321569 0.741176 1
0.741176 0.321569 0.741176 1
0.741176 0.321569 0.741176 1
0.741176 0.321569 0.741176 1
0.741176 0.321569 0.741176 1
0.741176 0.321569 0.741176 1
0.741176 0.321569 0.741176 1
0.741176 0.321569 0.741176 1
0.741176 0.321569 0.741176 1
0.741176 0.321569 0.741176 1
0.741176 0.321569 0.741176 1
0.741176 0.321569 0.741176 1
0.741176 0.321569 0.741176 1
0.741176 0.321569 0.741176 1
0.741176 0.321569 0.741176 1
0.741176 0.321569 0.741176 1
0.741176 0.321569 0.741176 1
0.741176 0.321569 0.741176 1
0.741176 0.321569 0.741176 1
0.741176 0.321569 0.741176 1
0.741176 0.321569 0.741176 1
0.741176 0.321569 0.741176 1
0.741176 0.321569 0.741176 1
0.741176 0.321569 0.741176 1
0.741176 0.321569 0.741176 1
0.741176 0.321569 0.741176 1
0.741176 0.321569 0.741176 1
0.741176 0.321569 0.741176 1
0.741176 0.321569 0.741176 1
0.741176 0.321569 0.741176 1
0.741176 0.321569 0.741176 1
0.741176 0.321569 0.741176 1
0.741176 0.321569 0.741176 1
0.741176 0.321569 0.741176 1
0.741176 0.321569 0.741176 1
0.741176 0.321569 0.741176 1
0.741176 0.321569 0.741176 1
0.741176 0.321569 0.741176 1
0.741176 0.321569 0.741176 1
0.741176 0.321569 0.741176 1
0.741176 0.321569 0.741176 1
0.741176 0.321569 0.741176 1
0.741176 0.321569 0.741176 1
0.741176 0.321569 0.741176 1
0.741176 0.321569 0.741176 1
0.741176 0.321569 0.741176 1
0.741176 0.321569 0.741176 1
0.741176 0.321569 0.741176 1
0.741176 0.321569 0.741176 1
0.741176 0.321569 0.741176 1
0.741176 0.321569 0.741176 1
0.741176 0.321569 0.741176 1
0.741176 0.321569 0.741176 1
0.741176 0.321569 0.741176 1
0.741176 0.321569 0.741176 1
0.741176 0.321569 0.741176 1
0.741176 0.321569 0.741176 1
0.741176 0.321569 0.741176 1
0.741176 0.321569 0.741176 1
0.741176 0.321569 0.741176 1
0.741176 0.321569 0.741176 1
0.741176 0.321569 0.741176 1
0.741176 0.321569 0.741176 1
0.741176 0.321569 0.741176 1
0.741176 0.321569 0.741176 1
0.741176 0.321569 0.741176 1
0.741176 0.321569 0.741176 1
0.741176 0.321569 0.741176 1
0.741176 0.321569 0.741176 1
0.741176 0.321569 0.741176 1
0.741176 0.321569 0.741176 1
0.741176 0.321569 0.741176 1
0.741176 0.321569 0.741176 1
0.741176 0.321569 0.741176 1
0.741176 0.321569 0.741176 1
0.741176 0.321569 0.741176 1
0.741176 0.321569 0.741176 1
0.741176 0.321569 0.741176 1
0.741176 0.321569 0.741176 1
0.741176 0.321569 0.741176 1
0.741176 0.321569 0.741176 1
0.741176 0.321569 0.741176 1
0.741176 0.321569 0.741176 1
0.741176 0.321569 0.741176 1
0.741176 0.321569 0.741176 1
0.741176 0.321569 0.741176 1
0.741176 0.321569 0.741176 1
0.741176 0.321569 0.741176 1
0.741176 0.321569 0.741176 1
0.741176 0.321569 0.741176 1
0.741176 0.321569 0.741176 1
0.741176 0.321569 0.741176 1
0.741176 0.321569 0.741176 1
0.741176 0.321569 0.741176 1
0.741176 0.321569 0.741176 1
0.741176 0.321569 0.741176 1
0.741176 0.321569 0.741176 1
0.741176 0.321569 0.741176 1
0.741176 0.321569 0.741176 1
0.741176 0.321569 0.741176 1
0.741176 0.321569 0.741176 1
0.741176 0.321569 0.741176 1
0.741176 0.321569 0.741176 1
0.741176 0.321569 0.741176 1
0.741176 0.321569 0.741176 1
0.741176 0.321569 0.741176 1
0.741176 0.321569 0.741176 1
0.741176 0.321569 0.741176 1
0.741176 0.321569 0.741176 1
0.741176 0.321569 0.741176 1
0.741176 0.321569 0.741176 1
0.741176 0.321569 0.741176 1
0.741176 0.321569 0.741176 1
0.741176 0.321569 0.741176 1
0.741176 0.321569 0.741176 1
0.741176 0.321569 0.741176 1
0.741176 0.321569 0.741176 1
0.741176 0.321569 0.741176 1
0.741176 0.321569 0.741176 1
0.741176 0.321569 0.741176 1
0.741176 0.321569 0.741176 1
0.741176 0.321569 0.741176 1
0.741176 0.321569 0.741176 1
0.741176 0.321569 0.741176 1
0.741176 0.321569 0.741176 1
0.741176 0.321569 0.741176 1
0.741176 0.321569 0.741176 1
0.741176 0.321569 0.741176 1
0.741176 0.321569 0.741176 1
0.741176 0.321569 0.741176 1
0.741176 0.321569 0.741176 1
0.741176 0.321569 0.741176 1
0.741176 0.321569 0.741176 1
0.741176 0.321569 0.741176 1
0.741176 0.321569 0.741176 1
0.741176 0.321569 0.741176 1
0.741176 0.321569 0.741176 1
0.741176 0.321569 0.741176 1
0.741176 0.321569 0.741176 1
0.741176 0.321569 0.741176 1
0.741176 0.321569 0.741176 1
0.741176 0.321569 0.741176 1
0.741176 0.321569 0.741176 1
0.741176 0.321569 0.741176 1
0.741176 0.321569 0.741176 1
0.741176 0.321569 0.741176 1
0.741176 0.321569 0.741176 1
0.741176 0.321569 0.741176 1
0.741176 0.321569 0.741176 1
0.741176 0.321569 0.741176 1
0.741176 0.321569 0.741176 1
0.741176 0.321569 0.741176 1
0.741176 0.321569 0.741176 1
0.741176 0.321569 0.741176 1
0.741176 0.321569 0.741176 1
0.741176 0.321569 0.741176 1
0.741176 0.321569 0.741176 1
0.741176 0.321569 0.741176 1
0.741176 0.321569 0.741176 1
0.741176 0.321569 0.741176 1
0.741176 0.321569 0.741176 1
0.741176 0.321569 0.741176 1
0.741176 0.321569 0.741176 1
0.741176 0.321569 0.741176 1
0.741176 0.321569 0.741176 1
0.741176 0.321569 0.741176 1
0.741176 0.321569 0.741176 1
0.741176 0.321569 0.741176 1
0.741176 0.321569 0.741176 1
0.741176 0.321569 0.741176 1
0.741176 0.321569 0.741176 1
0.741176 0.321569 0.741176 1
0.741176 0.321569 0.741176 1
0.741176 0.321569 0.741176 1
0.741176 0.321569 0.741176 1
0.741176 0.321569 0.741176 1
0.741176 0.321569 0.741176 1
0.741176 0.321569 0.741176 1
0.741176 0.321569 0.741176 1
0.741176 0.321569 0.741176 1
0.741176 0.321569 0.741176 1
0.741176 0.321569 0.741176 1
0.741176 0.321569 0.741176 1
0.741176 0.321569 0.741176 1
0.741176 0.321569 0.741176 1
0.741176 0.321569 0.741176 1
0.741176 0.321569 0.741176 1
0.741176 0.321569 0.741176 1
0.741176 0.321569 0.741176 1
0.741176 0.321569 0.741176 1
0.741176 0.321569 0.741176 1
0.741176 0.321569 0.741176 1
0.741176 0.321569 0.741176 1
0.741176 0.321569 0.741176 1
0.741176 0.321569 0.741176 1
0.741176 0.321569 0.741176 1
0.741176 0.321569 0.741176 1
0.741176 0.321569 0.741176 1
0.741176 0.321569 0.741176 1
0.741176 0.321569 0.741176 1
0.741176 0.321569 0.741176 1
0.741176 0.321569 0.741176 1
0.741176 0.321569 0.741176 1
0.741176 0.321569 0.741176 1
0.741176 0.321569 0.741176 1
0.741176 0.321569 0.741176 1
0.741176 0.321569 0.741176 1
0.741176 0.321569 0.741176 1
0.741176 0.321569 0.741176 1
0.741176 0.321569 0.741176 1
0.741176 0.321569 0.741176 1
0.741176 0.321569 0.741176 1
0.741176 0.321569 0.741176 1
0.741176 0.321569 0.741176 1
0.741176 0.321569 0.741176 1
0.741176 0.321569 0.741176 1
0.741176 0.321569 0.741176 1
0.741176 0.321569 0.741176 1
0.741176 0.321569 0.741176 1
0.741176 0.321569 0.741176 1
0.741176 0.321569 0.741176 1
0.741176 0.321569 0.741176 1
0.741176 0.321569 0.741176 1
0.741176 0.321569 0.741176 1
0.741176 0.321569 0.741176 1
0.741176 0.321569 0.741176 1
0.741176 0.321569 0.741176 1
0.741176 0.321569 0.741176 1
0.741176 0.321569 0.741176 1
0.741176 0.321569 0.741176 1
0.741176 0.321569 0.741176 1
0.741176 0.321569 0.741176 1
0.741176 0.321569 0.741176 1
0.741176 0.321569 0.741176 1
0.741176 0.321569 0.741176 1
0.741176 0.321569 0.741176 1
0.741176 0.321569 0.741176 1
0.741176 0.321569 0.741176 1
0.741176 0.321569 0.741176 1
0.741176 0.321569 0.741176 1
0.741176 0.321569 0.741176 1
0.741176 0.321569 0.741176 1
0.741176 0.321569 0.741176 1
0.741176 0.321569 0.741176 1
0.741176 0.321569 0.741176 1
0.741176 0.321569 0.741176 1
0.741176 0.321569 0.741176 1
0.741176 0.321569 0.741176 1
0.741176 0.321569 0.741176 1
0.741176 0.321569 0.741176 1
0.741176 0.321569 0.741176 1
0.741176 0.321569 0.741176 1
0.741176 0.321569 0.741176 1
0.741176 0.321569 0.741176 1
0.741176 0.321569 0.741176 1
0.741176 0.321569 0.741176 1
0.741176 0.321569 0.741176 1
0.741176 0.321569 0.741176 1
0.741176 0.321569 0.741176 1
0.741176 0.321569 0.741176 1
0.741176 0.321569 0.741176 1
0.741176 0.321569 0.741176 1
0.741176 0.321569 0.741176 1
0.741176 0.321569 0.741176 1
0.741176 0.321569 0.741176 1
0.741176 0.321569 0.741176 1
0.741176 0.321569 0.741176 1
0.741176 0.321569 0.741176 1
0.741176 0.321569 0.741176 1
0.741176 0.321569 0.741176 1
0.741176 0.321569 0.741176 1
0.741176 0.321569 0.741176 1
0.741176 0.321569 0.741176 1
0.741176 0.321569 0.741176 1
0.741176 0.321569 0.741176 1
0.741176 0.321569 0.741176 1
0.741176 0.321569 0.741176 1
0.741176 0.321569 0.741176 1
0.741176 0.321569 0.741176 1
0.741176 0.321569 0.741176 1
0.741176 0.321569 0.741176 1
0.741176 0.321569 0.741176 1
0.741176 0.321569 0.741176 1
0.741176 0.321569 0.741176 1
0.741176 0.321569 0.741176 1
0.741176 0.321569 0.741176 1
0.741176 0.321569 0.741176 1
0.741176 0.321569 0.741176 1
0.741176 0.321569 0.741176 1
0.741176 0.321569 0.741176 1
0.741176 0.321569 0.741176 1
0.741176 0.321569 0.741176 1
0.741176 0.321569 0.741176 1
0.741176 0.321569 0.741176 1
0.741176 0.321569 0.741176 1
0.741176 0.321569 0.741176 1
0.741176 0.321569 0.741176 1
0.741176 0.321569 0.741176 1
0.741176 0.321569 0.741176 1
0.741176 0.321569 0.741176 1
0.741176 0.321569 0.741176 1
0.741176 0.321569 0.741176 1
0.741176 0.321569 0.741176 1
0.741176 0.321569 0.741176 1
0.741176 0.321569 0.741176 1
0.741176 0.321569 0.741176 1
0.741176 0.321569 0.741176 1
0.741176 0.321569 0.741176 1
0.741176 0.321569 0.741176 1
0.741176 0.321569 0.741176 1
0.741176 0.321569 0.741176 1
0.741176 0.321569 0.741176 1
0.741176 0.321569 0.741176 1
0.741176 0.321569 0.741176 1
0.741176 0.321569 0.741176 1
0.741176 0.321569 0.741176 1
0.741176 0.321569 0.741176 1
0.741176 0.321569 0.741176 1
0.741176 0.321569 0.741176 1
0.741176 0.321569 0.741176 1
0.741176 0.321569 0.741176 1
0.741176 0.321569 0.741176 1
0.741176 0.321569 0.741176 1
0.741176 0.321569 0.741176 1
0.741176 0.321569 0.741176 1
0.741176 0.321569 0.741176 1
0.741176 0.321569 0.741176 1
0.741176 0.321569 0.741176 1
0.741176 0.321569 0.741176 1
0.741176 0.321569 0.741176 1
0.741176 0.321569 0.741176 1
0.741176 0.321569 0.741176 1
0.741176 0.321569 0.741176 1
0.741176 0.321569 0.741176 1
0.741176 0.321569 0.741176 1
0.741176 0.321569 0.741176 1
0.741176 0.321569 0.741176 1
0.741176 0.321569 0.741176 1
0.741176 0.321569 0.741176 1
0.741176 0.321569 0.741176 1
0.741176 0.321569 0.741176 1
0.741176 0.321569 0.741176 1
0.741176 0.321569 0.741176 1
0.741176 0.321569 0.741176 1
0.741176 0.321569 0.741176 1
0.741176 0.321569 0.741176 1
0.741176 0.321569 0.741176 1
0.741176 0.321569 0.741176 1
0.741176 0.321569 0.741176 1
0.741176 0.321569 0.741176 1
0.741176 0.321569 0.741176 1
0.741176 0.321569 0.741176 1
0.741176 0.321569 0.741176 1
0.741176 0.321569 0.741176 1
0.741176 0.321569 0.741176 1
0.741176 0.321569 0.741176 1
0.741176 0.321569 0.741176 1
0.741176 0.321569 0.741176 1
0.741176 0.321569 0.741176 1
0.741176 0.321569 0.741176 1
0.741176 0.321569 0.741176 1
0.741176 0.321569 0.741176 1
0.741176 0.321569 0.741176 1
0.741176 0.321569 0.741176 1
0.741176 0.321569 0.741176 1
0.741176 0.321569 0.741176 1
0.741176 0.321569 0.741176 1
0.741176 0.321569 0.741176 1
0.741176 0.321569 0.741176 1
0.741176 0.321569 0.741176 1
0.741176 0.321569 0.741176 1
0.741176 0.321569 0.741176 1
0.741176 0.321569 0.741176 1
0.741176 0.321569 0.741176 1
0.741176 0.321569 0.741176 1
0.741176 0.321569 0.741176 1
0.741176 0.321569 0.741176 1
0.741176 0.321569 0.741176 1
0.741176 0.321569 0.741176 1
0.741176 0.321569 0.741176 1
0.741176 0.321569 0.741176 1
0.741176 0.321569 0.741176 1
0.741176 0.321569 0.741176 1
0.741176 0.321569 0.741176 1
0.741176 0.321569 0.741176 1
0.741176 0.321569 0.741176 1
0.741176 0.321569 0.741176 1
0.741176 0.321569 0.741176 1
0.741176 0.321569 0.741176 1
0.741176 0.321569 0.741176 1
0.741176 0.321569 0.741176 1
0.741176 0.321569 0.741176 1
0.741176 0.321569 0.741176 1
0.741176 0.321569 0.741176 1
0.741176 0.321569 0.741176 1
0.741176 0.321569 0.741176 1
0.741176 0.321569 0.741176 1
0.741176 0.321569 0.741176 1
0.741176 0.321569 0.741176 1
0.741176 0.321569 0.741176 1
0.741176 0.321569 0.741176 1
0.741176 0.321569 0.741176 1
0.741176 0.321569 0.741176 1
0.741176 0.321569 0.741176 1
0.741176 0.321569 0.741176 1
0.741176 0.321569 0.741176 1
0.741176 0.321569 0.741176 1
0.741176 0.321569 0.741176 1
0.741176 0.321569 0.741176 1
0.741176 0.321569 0.741176 1
0.741176 0.321569 0.741176 1
0.741176 0.321569 0.741176 1
0.741176 0.321569 0.741176 1
0.741176 0.321569 0.741176 1
0.741176 0.321569 0.741176 1
0.741176 0.321569 0.741176 1
0.741176 0.321569 0.741176 1
0.741176 0.321569 0.741176 1
0.741176 0.321569 0.741176 1
0.741176 0.321569 0.741176 1
0.741176 0.321569 0.741176 1
0.741176 0.321569 0.741176 1
0.741176 0.321569 0.741176 1
0.741176 0.321569 0.741176 1
0.741176 0.321569 0.741176 1
0.741176 0.321569 0.741176 1
0.741176 0.321569 0.741176 1
0.741176 0.321569 0.741176 1
0.741176 0.321569 0.741176 1
0.741176 0.321569 0.741176 1
0.741176 0.321569 0.741176 1
0.741176 0.321569 0.741176 1
0.741176 0.321569 0.741176 1
0.741176 0.321569 0.741176 1
0.741176 0.321569 0.741176 1
0.741176 0.321569 0.741176 1
0.741176 0.321569 0.741176 1
0.741176 0.321569 0.741176 1
0.741176 0.321569 0.741176 1
0.741176 0.321569 0.741176 1
0.741176 0.321569 0.741176 1
0.741176 0.321569 0.741176 1
0.741176 0.321569 0.741176 1
0.741176 0.321569 0.741176 1
0.741176 0.321569 0.741176 1
0.741176 0.321569 0.741176 1
0.741176 0.321569 0.741176 1
0.741176 0.321569 0.741176 1
0.741176 0.321569 0.741176 1
0.741176 0.321569 0.741176 1
0.741176 0.321569 0.741176 1
0.741176 0.321569 0.741176 1
0.741176 0.321569 0.741176 1
0.741176 0.321569 0.741176 1
0.741176 0.321569 0.741176 1
0.741176 0.321569 0.741176 1
0.741176 0.321569 0.741176 1
0.741176 0.321569 0.741176 1
0.741176 0.321569 0.741176 1
0.741176 0.321569 0.741176 1
0.741176 0.321569 0.741176 1
0.741176 0.321569 0.741176 1
0.741176 0.321569 0.741176 1
0.741176 0.321569 0.741176 1
0.741176 0.321569 0.741176 1
0.741176 0.321569 0.741176 1
0.741176 0.321569 0.741176 1
0.741176 0.321569 0.741176 1
0.741176 0.321569 0.741176 1
0.741176 0.321569 0.741176 1
0.741176 0.321569 0.741176 1
0.741176 0.321569 0.741176 1
0.741176 0.321569 0.741176 1
0.741176 0.321569 0.741176 1
0.741176 0.321569 0.741176 1
0.741176 0.321569 0.741176 1
0.741176 0.321569 0.741176 1
0.741176 0.321569 0.741176 1
0.741176 0.321569 0.741176 1
0.741176 0.321569 0.741176 1
0.741176 0.321569 0.741176 1
0.741176 0.321569 0.741176 1
0.741176 0.321569 0.741176 1
0.741176 0.321569 0.741176 1
0.741176 0.321569 0.741176 1
0.741176 0.321569 0.741176 1
0.741176 0.321569 0.741176 1
0.741176 0.321569 0.741176 1
0.741176 0.321569 0.741176 1
0.741176 0.321569 0.741176 1
0.741176 0.321569 0.741176 1
0.741176 0.321569 0.741176 1
0.741176 0.321569 0.741176 1
0.741176 0.321569 0.741176 1
0.741176 0.321569 0.741176 1
0.741176 0.321569 0.741176 1
0.741176 0.321569 0.741176 1
0.741176 0.321569 0.741176 1
0.741176 0.321569 0.741176 1
0.741176 0.321569 0.741176 1
0.741176 0.321569 0.741176 1
0.741176 0.321569 0.741176 1
0.741176 0.321569 0.741176 1
0.741176 0.321569 0.741176 1
0.741176 0.321569 0.741176 1
0.741176 0.321569 0.741176 1
0.741176 0.321569 0.741176 1
0.741176 0.321569 0.741176 1
0.741176 0.321569 0.741176 1
0.741176 0.321569 0.741176 1
0.741176 0.321569 0.741176 1
0.741176 0.321569 0.741176 1
0.741176 0.321569 0.741176 1
0.741176 0.321569 0.741176 1
0.741176 0.321569 0.741176 1
0.741176 0.321569 0.741176 1
0.741176 0.321569 0.741176 1
0.741176 0.321569 0.741176 1
0.741176 0.321569 0.741176 1
0.741176 0.321569 0.741176 1
0.741176 0.321569 0.741176 1
0.741176 0.321569 0.741176 1
0.741176 0.321569 0.741176 1
0.741176 0.321569 0.741176 1
0.741176 0.321569 0.741176 1
0.741176 0.321569 0.741176 1
0.741176 0.321569 0.741176 1
0.741176 0.321569 0.741176 1
0.741176 0.321569 0.741176 1
0.741176 0.321569 0.741176 1
0.741176 0.321569 0.741176 1
0.741176 0.321569 0.741176 1
0.741176 0.321569 0.741176 1
0.741176 0.321569 0.741176 1
0.741176 0.321569 0.741176 1
0.741176 0.321569 0.741176 1
0.741176 0.321569 0.741176 1
0.741176 0.321569 0.741176 1
0.741176 0.321569 0.741176 1
0.741176 0.321569 0.741176 1
0.741176 0.321569 0.741176 1
0.741176 0.321569 0.741176 1
0.741176 0.321569 0.741176 1
0.741176 0.321569 0.741176 1
0.741176 0.321569 0.741176 1
0.741176 0.321569 0.741176 1
0.741176 0.321569 0.741176 1
0.741176 0.321569 0.741176 1
0.741176 0.321569 0.741176 1
0.741176 0.321569 0.741176 1
0.741176 0.321569 0.741176 1
0.741176 0.321569 0.741176 1
0.741176 0.321569 0.741176 1
0.741176 0.321569 0.741176 1
0.741176 0.321569 0.741176 1
0.741176 0.321569 0.741176 1
0.741176 0.321569 0.741176 1
0.741176 0.321569 0.741176 1
0.741176 0.321569 0.741176 1
0.741176 0.321569 0.741176 1
0.741176 0.321569 0.741176 1
0.741176 0.321569 0.741176 1
0.741176 0.321569 0.741176 1
0.741176 0.321569 0.741176 1
0.741176 0.321569 0.741176 1
0.741176 0.321569 0.741176 1
0.741176 0.321569 0.741176 1
0.741176 0.321569 0.741176 1
0.741176 0.321569 0.741176 1
0.741176 0.321569 0.741176 1
0.741176 0.321569 0.741176 1
0.741176 0.321569 0.741176 1
0.741176 0.321569 0.741176 1
0.741176 0.321569 0.741176 1
0.741176 0.321569 0.741176 1