# vtk DataFile Version 3.0
Gocad TSurf to VTK
ASCII
DATASET POLYDATA
POINTS 4620 float
21550780.109 4591352.422 -98.291
21550797.000 4591384.727 -96.680
21550863.500 4591344.469 -398.861
21550874.766 4591366.000 -397.787
21550852.250 4591322.922 -399.935
21550696.719 4591360.375 202.278
21550719.234 4591403.453 204.426
21550674.219 4591317.297 200.130
21550763.234 4591320.109 -99.902
21550651.703 4591274.219 197.982
21550746.344 4591287.805 -101.513
21550841.000 4591301.391 -401.009
21550629.203 4591231.141 195.834
21550729.469 4591255.492 -103.124
21550829.750 4591279.844 -402.083
21550712.594 4591223.188 -104.735
21550818.500 4591258.313 -403.157
21550606.688 4591188.063 193.686
21550695.703 4591190.875 -106.346
21550807.234 4591236.766 -404.231
21550584.172 4591144.984 191.538
21550630.656 4591046.828 -106.346
21550677.125 4590948.664 -404.231
21550561.672 4591101.906 189.390
21550613.781 4591014.516 -107.958
21550539.156 4591058.828 187.242
21550596.891 4590982.203 -109.569
21550665.875 4590927.125 -405.305
21550516.656 4591015.742 185.094
21550580.016 4590949.891 -111.180
21550654.625 4590905.586 -406.379
21550494.141 4590972.664 182.945
21550563.125 4590917.586 -112.791
21550643.375 4590884.047 -407.453
21550471.641 4590929.586 180.797
21550546.250 4590885.273 -114.402
21550632.109 4590862.500 -408.527
21550449.125 4590886.508 178.649
21550529.359 4590852.969 -116.013
21550620.859 4590840.969 -409.601
21550426.609 4590843.430 176.501
21550512.469 4590820.656 -117.624
21550598.344 4590797.891 -411.749
21550404.109 4590800.352 174.353
21550495.594 4590788.352 -119.235
21550587.094 4590776.344 -412.823
21550481.656 4590760.469 -119.235
21550559.219 4590720.586 -412.823
21550381.594 4590757.273 172.205
21550464.781 4590728.156 -120.846
21550359.094 4590714.195 170.057
21550447.906 4590695.852 -122.457
21550536.703 4590677.508 -414.971
21550336.578 4590671.117 167.909
21550431.016 4590663.547 -124.068
21550525.438 4590655.969 -416.046
21550314.078 4590628.039 165.761
21550414.141 4590631.234 -125.679
21550514.188 4590634.430 -417.120
21550291.563 4590584.961 163.613
21550397.250 4590598.922 -127.290
21550502.938 4590612.891 -418.194
21550264.625 4590547.266 162.478
21550377.047 4590570.656 -128.142
21550489.469 4590594.047 -418.761
21550356.844 4590542.375 -128.926
21550476.000 4590575.188 -419.284
21550237.688 4590509.563 161.432
21550336.641 4590514.109 -129.711
21550462.531 4590556.344 -419.807
21550210.750 4590471.867 160.386
21550316.422 4590485.836 -130.495
21550449.063 4590537.500 -420.330
21550183.797 4590434.172 159.340
21550296.219 4590457.555 -131.280
21550435.594 4590518.641 -420.853
21550156.859 4590396.469 158.294
21550276.016 4590429.281 -132.064
21550422.125 4590499.797 -421.376
21550129.922 4590358.773 157.248
21550251.375 4590404.156 -132.780
21550405.688 4590483.047 -421.854
21550097.063 4590325.266 156.293
21550226.734 4590379.023 -133.496
21550389.250 4590466.289 -422.331
21550064.203 4590291.758 155.338
21550202.094 4590353.898 -134.212
21550372.828 4590449.539 -422.808
21550031.344 4590258.258 154.383
21550177.438 4590328.766 -134.928
21550356.406 4590432.781 -423.286
21549998.484 4590224.750 153.429
21550152.797 4590303.641 -135.645
21550339.969 4590416.031 -423.763
21549965.625 4590191.242 152.474
21550128.156 4590278.508 -136.361
21550323.531 4590399.281 -424.240
21549932.766 4590157.734 151.519
21550103.500 4590253.375 -137.129
21550307.109 4590382.523 -424.753
21549899.906 4590124.227 150.494
21550078.859 4590228.242 -138.084
21550290.688 4590365.766 -425.389
21549867.047 4590090.719 149.221
21550054.219 4590203.117 -139.039
21550274.250 4590349.016 -426.026
21549834.188 4590057.219 147.948
21550029.578 4590177.984 -139.994
21550257.813 4590332.266 -426.662
21549801.328 4590023.711 146.675
21550004.938 4590152.859 -140.948
21550241.391 4590315.516 -427.299
21549768.469 4589990.203 145.402
21549990.063 4590120.484 -142.017
21550231.469 4590293.930 -428.011
21549748.641 4589947.039 143.977
21549975.172 4590088.117 -143.086
21550221.563 4590272.352 -428.724
21549728.797 4589903.883 142.552
21549960.313 4590055.742 -144.155
21550211.641 4590250.766 -429.436
21549708.969 4589860.719 141.127
21549978.625 4590031.602 -144.671
21550223.859 4590234.672 -429.780
21549733.406 4589828.531 140.439
21549996.953 4590007.453 -145.187
21550236.063 4590218.578 -430.125
21549757.828 4589796.336 139.751
21550015.281 4589983.313 -145.703
21550248.281 4590202.484 -430.469
21549782.266 4589764.148 139.063
21549825.672 4589778.328 139.883
21550047.828 4589993.953 -145.088
21549869.078 4589792.516 140.704
21550080.391 4590004.594 -144.472
21550270.000 4590209.578 -430.058
21549912.469 4589806.703 141.524
21550112.938 4590015.234 -143.857
21550291.688 4590216.672 -429.648
21549955.875 4589820.883 142.345
21550145.484 4590025.867 -143.241
21550313.391 4590223.766 -429.238
21549999.281 4589835.063 143.165
21550178.031 4590036.500 -142.626
21550335.094 4590230.852 -428.828
21550042.688 4589849.250 143.888
21550210.594 4590047.141 -142.084
21550356.797 4590237.938 -428.417
21550086.094 4589863.438 144.375
21550243.156 4590057.781 -141.718
21550378.500 4590245.031 -428.056
21550129.484 4589877.617 144.862
21550275.688 4590068.422 -141.353
21550400.203 4590252.125 -427.812
21550172.891 4589891.797 145.349
21550308.250 4590079.055 -140.988
21550421.906 4590259.219 -427.569
21550216.297 4589905.984 145.836
21550340.797 4590089.695 -140.623
21550443.594 4590266.313 -427.325
21550256.219 4589928.438 146.526
21550370.750 4590106.531 -140.105
21550465.313 4590273.406 -427.082
21550296.156 4589950.891 147.217
21550400.688 4590123.375 -139.588
21550485.266 4590284.625 -426.737
21550336.078 4589973.344 147.907
21550430.641 4590140.211 -139.070
21550505.234 4590295.859 -426.392
21550376.000 4589995.797 148.597
21550460.578 4590157.055 -138.552
21550525.188 4590307.078 -426.047
21550415.938 4590018.250 149.287
21550490.531 4590173.891 -138.035
21550545.156 4590318.313 -425.702
21550455.859 4590040.703 149.977
21550520.469 4590190.734 -137.517
21550565.125 4590329.531 -425.357
21550550.406 4590207.570 -137.000
21550585.094 4590340.766 -425.011
21550495.781 4590063.156 150.667
21550580.375 4590224.414 -136.482
21550605.047 4590351.984 -424.666
21550535.719 4590085.609 151.357
21550610.313 4590241.250 -135.964
21550625.016 4590363.219 -424.321
21550575.641 4590108.063 152.047
21550638.813 4590261.297 -135.368
21550644.969 4590374.438 -423.976
21550613.641 4590134.789 152.842
21550667.297 4590281.344 -134.772
21550663.969 4590387.805 -423.579
21550651.625 4590161.516 153.637
21550695.797 4590301.383 -134.177
21550682.969 4590401.172 -423.182
21550689.625 4590188.234 154.431
21550724.297 4590321.422 -133.581
21550701.969 4590414.531 -422.784
21550727.625 4590214.961 155.226
21550752.781 4590341.469 -132.985
21550720.969 4590427.891 -422.387
21550765.609 4590241.688 156.021
21550781.281 4590361.516 -132.389
21550739.969 4590441.250 -421.990
21550803.609 4590268.414 156.815
21550809.781 4590381.555 -131.793
21550758.969 4590454.617 -421.592
21550841.609 4590295.133 157.610
21550860.906 4590400.141 -131.793
21550777.969 4590467.977 -421.195
21550889.391 4590420.188 -131.197
21550880.188 4590505.156 -421.195
21550879.594 4590321.859 158.404
21550917.891 4590440.234 -130.601
21550899.188 4590518.516 -420.798
21550917.594 4590348.586 159.199
21550946.375 4590460.281 -129.876
21550918.188 4590531.875 -420.401
21550955.578 4590375.313 160.166
21550974.875 4590480.320 -128.713
21550937.188 4590545.242 -419.917
21550993.578 4590402.039 161.716
21551003.375 4590500.359 -127.550
21550956.188 4590558.609 -419.142
21551031.578 4590428.758 163.266
21551031.875 4590520.406 -126.388
21550975.188 4590571.969 -418.367
21551069.563 4590455.484 164.816
21551060.375 4590540.453 -125.225
21551013.172 4590598.688 -416.817
21551107.563 4590482.211 166.367
21551157.953 4590586.922 -125.225
21551190.406 4590602.875 -124.211
21551208.344 4590691.625 -416.817
21551150.828 4590503.484 167.719
21551222.844 4590618.820 -123.197
21551229.969 4590702.266 -416.141
21551194.094 4590524.750 169.071
21551255.297 4590634.773 -122.183
21551251.594 4590712.891 -415.465
21551237.359 4590546.016 170.422
21551287.734 4590650.727 -121.170
21551273.234 4590723.531 -414.789
21551280.609 4590567.289 171.774
21551320.188 4590666.680 -120.199
21551294.859 4590734.164 -414.113
21551323.875 4590588.563 173.069
21551352.625 4590682.633 -119.863
21551316.500 4590744.797 -413.466
21551367.141 4590609.828 173.516
21551385.078 4590698.578 -119.527
21551338.125 4590755.438 -413.242
21551410.406 4590631.094 173.964
21551417.531 4590714.531 -119.191
21551381.391 4590776.703 -412.794
21551453.672 4590652.367 174.412
21551449.984 4590730.492 -118.855
21551403.031 4590787.344 -412.570
21551496.938 4590673.641 174.860
21551482.422 4590746.438 -118.519
21551424.656 4590797.969 -412.346
21551540.188 4590694.906 175.308
21551514.875 4590762.391 -118.183
21551446.281 4590808.609 -412.122
21551583.453 4590716.172 175.756
21551635.688 4590836.734 -118.183
21551668.141 4590852.695 -117.847
21551687.922 4590957.305 -412.122
21551626.719 4590737.445 176.204
21551700.594 4590868.648 -117.511
21551709.563 4590967.938 -411.898
21551669.984 4590758.719 176.652
21551733.031 4590884.594 -117.175
21551731.188 4590978.578 -411.674
21551713.250 4590779.984 177.100
21551765.484 4590900.547 -116.839
21551752.813 4590989.211 -411.450
21551756.516 4590801.250 177.547
21551797.938 4590916.500 -116.503
21551774.453 4590999.844 -411.226
21551799.781 4590822.523 177.996
21551830.375 4590932.453 -116.167
21551796.094 4591010.484 -411.002
21551843.031 4590843.797 178.444
21551862.813 4590948.406 -115.831
21551817.719 4591021.117 -410.778
21551886.297 4590865.063 178.891
21551895.266 4590964.359 -115.495
21551839.344 4591031.750 -410.554
21551929.563 4590886.328 179.339
21551927.719 4590980.313 -115.159
21551882.609 4591053.016 -410.106
21551972.828 4590907.602 179.787
21551956.250 4591001.180 -114.581
[...]
POINT_DATA 4620
COLOR_SCALARS GocadColor 4
0.611765 0.243137 0.807843 1
0.611765 0.243137 0.807843 1
0.611765 0.243137 0.807843 1
0.611765 0.243137 0.807843 1
0.611765 0.243137 0.807843 1
0.611765 0.243137 0.807843 1
0.611765 0.243137 0.807843 1
0.611765 0.243137 0.807843 1
0.611765 0.243137 0.807843 1
0.611765 0.243137 0.807843 1
0.611765 0.243137 0.807843 1
0.611765 0.243137 0.807843 1
0.611765 0.243137 0.807843 1
0.611765 0.243137 0.807843 1
0.611765 0.243137 0.807843 1
0.611765 0.243137 0.807843 1
0.611765 0.243137 0.807843 1
0.611765 0.243137 0.807843 1
0.611765 0.243137 0.807843 1
0.611765 0.243137 0.807843 1
0.611765 0.243137 0.807843 1
0.611765 0.243137 0.807843 1
0.611765 0.243137 0.807843 1
0.611765 0.243137 0.807843 1
0.611765 0.243137 0.807843 1
0.611765 0.243137 0.807843 1
0.611765 0.243137 0.807843 1
0.611765 0.243137 0.807843 1
0.611765 0.243137 0.807843 1
0.611765 0.243137 0.807843 1
0.611765 0.243137 0.807843 1
0.611765 0.243137 0.807843 1
0.611765 0.243137 0.807843 1
0.611765 0.243137 0.807843 1
0.611765 0.243137 0.807843 1
0.611765 0.243137 0.807843 1
0.611765 0.243137 0.807843 1
0.611765 0.243137 0.807843 1
0.611765 0.243137 0.807843 1
0.611765 0.243137 0.807843 1
0.611765 0.243137 0.807843 1
0.611765 0.243137 0.807843 1
0.611765 0.243137 0.807843 1
0.611765 0.243137 0.807843 1
0.611765 0.243137 0.807843 1
0.611765 0.243137 0.807843 1
0.611765 0.243137 0.807843 1
0.611765 0.243137 0.807843 1
0.611765 0.243137 0.807843 1
0.611765 0.243137 0.807843 1
0.611765 0.243137 0.807843 1
0.611765 0.243137 0.807843 1
0.611765 0.243137 0.807843 1
0.611765 0.243137 0.807843 1
0.611765 0.243137 0.807843 1
0.611765 0.243137 0.807843 1
0.611765 0.243137 0.807843 1
0.611765 0.243137 0.807843 1
0.611765 0.243137 0.807843 1
0.611765 0.243137 0.807843 1
0.611765 0.243137 0.807843 1
0.611765 0.243137 0.807843 1
0.611765 0.243137 0.807843 1
0.611765 0.243137 0.807843 1
0.611765 0.243137 0.807843 1
0.611765 0.243137 0.807843 1
0.611765 0.243137 0.807843 1
0.611765 0.243137 0.807843 1
0.611765 0.243137 0.807843 1
0.611765 0.243137 0.807843 1
0.611765 0.243137 0.807843 1
0.611765 0.243137 0.807843 1
0.611765 0.243137 0.807843 1
0.611765 0.243137 0.807843 1
0.611765 0.243137 0.807843 1
0.611765 0.243137 0.807843 1
0.611765 0.243137 0.807843 1
0.611765 0.243137 0.807843 1
0.611765 0.243137 0.807843 1
0.611765 0.243137 0.807843 1
0.611765 0.243137 0.807843 1
0.611765 0.243137 0.807843 1
0.611765 0.243137 0.807843 1
0.611765 0.243137 0.807843 1
0.611765 0.243137 0.807843 1
0.611765 0.243137 0.807843 1
0.611765 0.243137 0.807843 1
0.611765 0.243137 0.807843 1
0.611765 0.243137 0.807843 1
0.611765 0.243137 0.807843 1
0.611765 0.243137 0.807843 1
0.611765 0.243137 0.807843 1
0.611765 0.243137 0.807843 1
0.611765 0.243137 0.807843 1
0.611765 0.243137 0.807843 1
0.611765 0.243137 0.807843 1
0.611765 0.243137 0.807843 1
0.611765 0.243137 0.807843 1
0.611765 0.243137 0.807843 1
0.611765 0.243137 0.807843 1
0.611765 0.243137 0.807843 1
0.611765 0.243137 0.807843 1
0.611765 0.243137 0.807843 1
0.611765 0.243137 0.807843 1
0.611765 0.243137 0.807843 1
0.611765 0.243137 0.807843 1
0.611765 0.243137 0.807843 1
0.611765 0.243137 0.807843 1
0.611765 0.243137 0.807843 1
0.611765 0.243137 0.807843 1
0.611765 0.243137 0.807843 1
0.611765 0.243137 0.807843 1
0.611765 0.243137 0.807843 1
0.611765 0.243137 0.807843 1
0.611765 0.243137 0.807843 1
0.611765 0.243137 0.807843 1
0.611765 0.243137 0.807843 1
0.611765 0.243137 0.807843 1
0.611765 0.243137 0.807843 1
0.611765 0.243137 0.807843 1
0.611765 0.243137 0.807843 1
0.611765 0.243137 0.807843 1
0.611765 0.243137 0.807843 1
0.611765 0.243137 0.807843 1
0.611765 0.243137 0.807843 1
0.611765 0.243137 0.807843 1
0.611765 0.243137 0.807843 1
0.611765 0.243137 0.807843 1
0.611765 0.243137 0.807843 1
0.611765 0.243137 0.807843 1
0.611765 0.243137 0.807843 1
0.611765 0.243137 0.807843 1
0.611765 0.243137 0.807843 1
0.611765 0.243137 0.807843 1
0.611765 0.243137 0.807843 1
0.611765 0.243137 0.807843 1
0.611765 0.243137 0.807843 1
0.611765 0.243137 0.807843 1
0.611765 0.243137 0.807843 1
0.611765 0.243137 0.807843 1
0.611765 0.243137 0.807843 1
0.611765 0.243137 0.807843 1
0.611765 0.243137 0.807843 1
0.611765 0.243137 0.807843 1
0.611765 0.243137 0.807843 1
0.611765 0.243137 0.807843 1
0.611765 0.243137 0.807843 1
0.611765 0.243137 0.807843 1
0.611765 0.243137 0.807843 1
0.611765 0.243137 0.807843 1
0.611765 0.243137 0.807843 1
0.611765 0.243137 0.807843 1
0.611765 0.243137 0.807843 1
0.611765 0.243137 0.807843 1
0.611765 0.243137 0.807843 1
0.611765 0.243137 0.807843 1
0.611765 0.243137 0.807843 1
0.611765 0.243137 0.807843 1
0.611765 0.243137 0.807843 1
0.611765 0.243137 0.807843 1
0.611765 0.243137 0.807843 1
0.611765 0.243137 0.807843 1
0.611765 0.243137 0.807843 1
0.611765 0.243137 0.807843 1
0.611765 0.243137 0.807843 1
0.611765 0.243137 0.807843 1
0.611765 0.243137 0.807843 1
0.611765 0.243137 0.807843 1
0.611765 0.243137 0.807843 1
0.611765 0.243137 0.807843 1
0.611765 0.243137 0.807843 1
0.611765 0.243137 0.807843 1
0.611765 0.243137 0.807843 1
0.611765 0.243137 0.807843 1
0.611765 0.243137 0.807843 1
0.611765 0.243137 0.807843 1
0.611765 0.243137 0.807843 1
0.611765 0.243137 0.807843 1
0.611765 0.243137 0.807843 1
0.611765 0.243137 0.807843 1
0.611765 0.243137 0.807843 1
0.611765 0.243137 0.807843 1
0.611765 0.243137 0.807843 1
0.611765 0.243137 0.807843 1
0.611765 0.243137 0.807843 1
0.611765 0.243137 0.807843 1
0.611765 0.243137 0.807843 1
0.611765 0.243137 0.807843 1
0.611765 0.243137 0.807843 1
0.611765 0.243137 0.807843 1
0.611765 0.243137 0.807843 1
0.611765 0.243137 0.807843 1
0.611765 0.243137 0.807843 1
0.611765 0.243137 0.807843 1
0.611765 0.243137 0.807843 1
0.611765 0.243137 0.807843 1
0.611765 0.243137 0.807843 1
0.611765 0.243137 0.807843 1
0.611765 0.243137 0.807843 1
0.611765 0.243137 0.807843 1
0.611765 0.243137 0.807843 1
0.611765 0.243137 0.807843 1
0.611765 0.243137 0.807843 1
0.611765 0.243137 0.807843 1
0.611765 0.243137 0.807843 1
0.611765 0.243137 0.807843 1
0.611765 0.243137 0.807843 1
0.611765 0.243137 0.807843 1
0.611765 0.243137 0.807843 1
0.611765 0.243137 0.807843 1
0.611765 0.243137 0.807843 1
0.611765 0.243137 0.807843 1
0.611765 0.243137 0.807843 1
0.611765 0.243137 0.807843 1
0.611765 0.243137 0.807843 1
0.611765 0.243137 0.807843 1
0.611765 0.243137 0.807843 1
0.611765 0.243137 0.807843 1
0.611765 0.243137 0.807843 1
0.611765 0.243137 0.807843 1
0.611765 0.243137 0.807843 1
0.611765 0.243137 0.807843 1
0.611765 0.243137 0.807843 1
0.611765 0.243137 0.807843 1
0.611765 0.243137 0.807843 1
0.611765 0.243137 0.807843 1
0.611765 0.243137 0.807843 1
0.611765 0.243137 0.807843 1
0.611765 0.243137 0.807843 1
0.611765 0.243137 0.807843 1
0.611765 0.243137 0.807843 1
0.611765 0.243137 0.807843 1
0.611765 0.243137 0.807843 1
0.611765 0.243137 0.807843 1
0.611765 0.243137 0.807843 1
0.611765 0.243137 0.807843 1
0.611765 0.243137 0.807843 1
0.611765 0.243137 0.807843 1
0.611765 0.243137 0.807843 1
0.611765 0.243137 0.807843 1
0.611765 0.243137 0.807843 1
0.611765 0.243137 0.807843 1
0.611765 0.243137 0.807843 1
0.611765 0.243137 0.807843 1
0.611765 0.243137 0.807843 1
0.611765 0.243137 0.807843 1
0.611765 0.243137 0.807843 1
0.611765 0.243137 0.807843 1
0.611765 0.243137 0.807843 1
0.611765 0.243137 0.807843 1
0.611765 0.243137 0.807843 1
0.611765 0.243137 0.807843 1
0.611765 0.243137 0.807843 1
0.611765 0.243137 0.807843 1
0.611765 0.243137 0.807843 1
0.611765 0.243137 0.807843 1
0.611765 0.243137 0.807843 1
0.611765 0.243137 0.807843 1
0.611765 0.243137 0.807843 1
0.611765 0.243137 0.807843 1
0.611765 0.243137 0.807843 1
0.611765 0.243137 0.807843 1
0.611765 0.243137 0.807843 1
0.611765 0.243137 0.807843 1
0.611765 0.243137 0.807843 1
0.611765 0.243137 0.807843 1
0.611765 0.243137 0.807843 1
0.611765 0.243137 0.807843 1
0.611765 0.243137 0.807843 1
0.611765 0.243137 0.807843 1
0.611765 0.243137 0.807843 1
0.611765 0.243137 0.807843 1
0.611765 0.243137 0.807843 1
0.611765 0.243137 0.807843 1
0.611765 0.243137 0.807843 1
0.611765 0.243137 0.807843 1
0.611765 0.243137 0.807843 1
0.611765 0.243137 0.807843 1
0.611765 0.243137 0.807843 1
0.611765 0.243137 0.807843 1
0.611765 0.243137 0.807843 1
0.611765 0.243137 0.807843 1
0.611765 0.243137 0.807843 1
0.611765 0.243137 0.807843 1
0.611765 0.243137 0.807843 1
0.611765 0.243137 0.807843 1
0.611765 0.243137 0.807843 1
0.611765 0.243137 0.807843 1
0.611765 0.243137 0.807843 1
0.611765 0.243137 0.807843 1
0.611765 0.243137 0.807843 1
0.611765 0.243137 0.807843 1
0.611765 0.243137 0.807843 1
0.611765 0.243137 0.807843 1
0.611765 0.243137 0.807843 1
0.611765 0.243137 0.807843 1
0.611765 0.243137 0.807843 1
0.611765 0.243137 0.807843 1
0.611765 0.243137 0.807843 1
0.611765 0.243137 0.807843 1
0.611765 0.243137 0.807843 1
0.611765 0.243137 0.807843 1
0.611765 0.243137 0.807843 1
0.611765 0.243137 0.807843 1
0.611765 0.243137 0.807843 1
0.611765 0.243137 0.807843 1
0.611765 0.243137 0.807843 1
0.611765 0.243137 0.807843 1
0.611765 0.243137 0.807843 1
0.611765 0.243137 0.807843 1
0.611765 0.243137 0.807843 1
0.611765 0.243137 0.807843 1
0.611765 0.243137 0.807843 1
0.611765 0.243137 0.807843 1
0.611765 0.243137 0.807843 1
0.611765 0.243137 0.807843 1
0.611765 0.243137 0.807843 1
0.611765 0.243137 0.807843 1
0.611765 0.243137 0.807843 1
0.611765 0.243137 0.807843 1
0.611765 0.243137 0.807843 1
0.611765 0.243137 0.807843 1
0.611765 0.243137 0.807843 1
0.611765 0.243137 0.807843 1
0.611765 0.243137 0.807843 1
0.611765 0.243137 0.807843 1
0.611765 0.243137 0.807843 1
0.611765 0.243137 0.807843 1
0.611765 0.243137 0.807843 1
0.611765 0.243137 0.807843 1
0.611765 0.243137 0.807843 1
0.611765 0.243137 0.807843 1
0.611765 0.243137 0.807843 1
0.611765 0.243137 0.807843 1
0.611765 0.243137 0.807843 1
0.611765 0.243137 0.807843 1
0.611765 0.243137 0.807843 1
0.611765 0.243137 0.807843 1
0.611765 0.243137 0.807843 1
0.611765 0.243137 0.807843 1
0.611765 0.243137 0.807843 1
0.611765 0.243137 0.807843 1
0.611765 0.243137 0.807843 1
0.611765 0.243137 0.807843 1
0.611765 0.243137 0.807843 1
0.611765 0.243137 0.807843 1
0.611765 0.243137 0.807843 1
0.611765 0.243137 0.807843 1
0.611765 0.243137 0.807843 1
0.611765 0.243137 0.807843 1
0.611765 0.243137 0.807843 1
0.611765 0.243137 0.807843 1
0.611765 0.243137 0.807843 1
0.611765 0.243137 0.807843 1
0.611765 0.243137 0.807843 1
0.611765 0.243137 0.807843 1
0.611765 0.243137 0.807843 1
0.611765 0.243137 0.807843 1
0.611765 0.243137 0.807843 1
0.611765 0.243137 0.807843 1
0.611765 0.243137 0.807843 1
0.611765 0.243137 0.807843 1
0.611765 0.243137 0.807843 1
0.611765 0.243137 0.807843 1
0.611765 0.243137 0.807843 1
0.611765 0.243137 0.807843 1
0.611765 0.243137 0.807843 1
0.611765 0.243137 0.807843 1
0.611765 0.243137 0.807843 1
0.611765 0.243137 0.807843 1
0.611765 0.243137 0.807843 1
0.611765 0.243137 0.807843 1
0.611765 0.243137 0.807843 1
0.611765 0.243137 0.807843 1
0.611765 0.243137 0.807843 1
0.611765 0.243137 0.807843 1
0.611765 0.243137 0.807843 1
0.611765 0.243137 0.807843 1
0.611765 0.243137 0.807843 1
0.611765 0.243137 0.807843 1
0.611765 0.243137 0.807843 1
0.611765 0.243137 0.807843 1
0.611765 0.243137 0.807843 1
0.611765 0.243137 0.807843 1
0.611765 0.243137 0.807843 1
0.611765 0.243137 0.807843 1
0.611765 0.243137 0.807843 1
0.611765 0.243137 0.807843 1
0.611765 0.243137 0.807843 1
0.611765 0.243137 0.807843 1
0.611765 0.243137 0.807843 1
0.611765 0.243137 0.807843 1
0.611765 0.243137 0.807843 1
0.611765 0.243137 0.807843 1
0.611765 0.243137 0.807843 1
0.611765 0.243137 0.807843 1
0.611765 0.243137 0.807843 1
0.611765 0.243137 0.807843 1
0.611765 0.243137 0.807843 1
0.611765 0.243137 0.807843 1
0.611765 0.243137 0.807843 1
0.611765 0.243137 0.807843 1
0.611765 0.243137 0.807843 1
0.611765 0.243137 0.807843 1
0.611765 0.243137 0.807843 1
0.611765 0.243137 0.807843 1
0.611765 0.243137 0.807843 1
0.611765 0.243137 0.807843 1
0.611765 0.243137 0.807843 1
0.611765 0.243137 0.807843 1
0.611765 0.243137 0.807843 1
0.611765 0.243137 0.807843 1
0.611765 0.243137 0.807843 1
0.611765 0.243137 0.807843 1
0.611765 0.243137 0.807843 1
0.611765 0.243137 0.807843 1
0.611765 0.243137 0.807843 1
0.611765 0.243137 0.807843 1
0.611765 0.243137 0.807843 1
0.611765 0.243137 0.807843 1
0.611765 0.243137 0.807843 1
0.611765 0.243137 0.807843 1
0.611765 0.243137 0.807843 1
0.611765 0.243137 0.807843 1
0.611765 0.243137 0.807843 1
0.611765 0.243137 0.807843 1
0.611765 0.243137 0.807843 1
0.611765 0.243137 0.807843 1
0.611765 0.243137 0.807843 1
0.611765 0.243137 0.807843 1
0.611765 0.243137 0.807843 1
0.611765 0.243137 0.807843 1
0.611765 0.243137 0.807843 1
0.611765 0.243137 0.807843 1
0.611765 0.243137 0.807843 1
0.611765 0.243137 0.807843 1
0.611765 0.243137 0.807843 1
0.611765 0.243137 0.807843 1
0.611765 0.243137 0.807843 1
0.611765 0.243137 0.807843 1
0.611765 0.243137 0.807843 1
0.611765 0.243137 0.807843 1
0.611765 0.243137 0.807843 1
0.611765 0.243137 0.807843 1
0.611765 0.243137 0.807843 1
0.611765 0.243137 0.807843 1
0.611765 0.243137 0.807843 1
0.611765 0.243137 0.807843 1
0.611765 0.243137 0.807843 1
0.611765 0.243137 0.807843 1
0.611765 0.243137 0.807843 1
0.611765 0.243137 0.807843 1
0.611765 0.243137 0.807843 1
0.611765 0.243137 0.807843 1
0.611765 0.243137 0.807843 1
0.611765 0.243137 0.807843 1
0.611765 0.243137 0.807843 1
0.611765 0.243137 0.807843 1
0.611765 0.243137 0.807843 1
0.611765 0.243137 0.807843 1
0.611765 0.243137 0.807843 1
0.611765 0.243137 0.807843 1
0.611765 0.243137 0.807843 1
0.611765 0.243137 0.807843 1
0.611765 0.243137 0.807843 1
0.611765 0.243137 0.807843 1
0.611765 0.243137 0.807843 1
0.611765 0.243137 0.807843 1
0.611765 0.243137 0.807843 1
0.611765 0.243137 0.807843 1
0.611765 0.243137 0.807843 1
0.611765 0.243137 0.807843 1
0.611765 0.243137 0.807843 1
0.611765 0.243137 0.807843 1
0.611765 0.243137 0.807843 1
0.611765 0.243137 0.807843 1
0.611765 0.243137 0.807843 1
0.611765 0.243137 0.807843 1
0.611765 0.243137 0.807843 1
0.611765 0.243137 0.807843 1
0.611765 0.243137 0.807843 1
0.611765 0.243137 0.807843 1
0.611765 0.243137 0.807843 1
0.611765 0.243137 0.807843 1
0.611765 0.243137 0.807843 1
0.611765 0.243137 0.807843 1
0.611765 0.243137 0.807843 1
0.611765 0.243137 0.807843 1
0.611765 0.243137 0.807843 1
0.611765 0.243137 0.807843 1
0.611765 0.243137 0.807843 1
0.611765 0.243137 0.807843 1
0.611765 0.243137 0.807843 1
0.611765 0.243137 0.807843 1
0.611765 0.243137 0.807843 1
0.611765 0.243137 0.807843 1
0.611765 0.243137 0.807843 1
0.611765 0.243137 0.807843 1
0.611765 0.243137 0.807843 1
0.611765 0.243137 0.807843 1
0.611765 0.243137 0.807843 1
0.611765 0.243137 0.807843 1
0.611765 0.243137 0.807843 1
0.611765 0.243137 0.807843 1
0.611765 0.243137 0.807843 1
0.611765 0.243137 0.807843 1
0.611765 0.243137 0.807843 1
0.611765 0.243137 0.807843 1
0.611765 0.243137 0.807843 1
0.611765 0.243137 0.807843 1
0.611765 0.243137 0.807843 1
0.611765 0.243137 0.807843 1
0.611765 0.243137 0.807843 1
0.611765 0.243137 0.807843 1
0.611765 0.243137 0.807843 1
0.611765 0.243137 0.807843 1
0.611765 0.243137 0.807843 1
0.611765 0.243137 0.807843 1
0.611765 0.243137 0.807843 1
0.611765 0.243137 0.807843 1
0.611765 0.243137 0.807843 1
0.611765 0.243137 0.807843 1
0.611765 0.243137 0.807843 1
0.611765 0.243137 0.807843 1
0.611765 0.243137 0.807843 1
0.611765 0.243137 0.807843 1
0.611765 0.243137 0.807843 1
0.611765 0.243137 0.807843 1
0.611765 0.243137 0.807843 1
0.611765 0.243137 0.807843 1
0.611765 0.243137 0.807843 1
0.611765 0.243137 0.807843 1
0.611765 0.243137 0.807843 1
0.611765 0.243137 0.807843 1
0.611765 0.243137 0.807843 1
0.611765 0.243137 0.807843 1
0.611765 0.243137 0.807843 1
0.611765 0.243137 0.807843 1
0.611765 0.243137 0.807843 1
0.611765 0.243137 0.807843 1
0.611765 0.243137 0.807843 1
0.611765 0.243137 0.807843 1
0.611765 0.243137 0.807843 1
0.611765 0.243137 0.807843 1
0.611765 0.243137 0.807843 1
0.611765 0.243137 0.807843 1
0.611765 0.243137 0.807843 1
0.611765 0.243137 0.807843 1
0.611765 0.243137 0.807843 1
0.611765 0.243137 0.807843 1
0.611765 0.243137 0.807843 1
0.611765 0.243137 0.807843 1
0.611765 0.243137 0.807843 1
0.611765 0.243137 0.807843 1
0.611765 0.243137 0.807843 1
0.611765 0.243137 0.807843 1
0.611765 0.243137 0.807843 1
0.611765 0.243137 0.807843 1
0.611765 0.243137 0.807843 1
0.611765 0.243137 0.807843 1
0.611765 0.243137 0.807843 1
0.611765 0.243137 0.807843 1
0.611765 0.243137 0.807843 1
0.611765 0.243137 0.807843 1
0.611765 0.243137 0.807843 1
0.611765 0.243137 0.807843 1
0.611765 0.243137 0.807843 1
0.611765 0.243137 0.807843 1
0.611765 0.243137 0.807843 1
0.611765 0.243137 0.807843 1
0.611765 0.243137 0.807843 1
0.611765 0.243137 0.807843 1
0.611765 0.243137 0.807843 1
0.611765 0.243137 0.807843 1
0.611765 0.243137 0.807843 1
0.611765 0.243137 0.807843 1
0.611765 0.243137 0.807843 1
0.611765 0.243137 0.807843 1
0.611765 0.243137 0.807843 1
0.611765 0.243137 0.807843 1
0.611765 0.243137 0.807843 1
0.611765 0.243137 0.807843 1
0.611765 0.243137 0.807843 1
0.611765 0.243137 0.807843 1
0.611765 0.243137 0.807843 1
0.611765 0.243137 0.807843 1
0.611765 0.243137 0.807843 1
0.611765 0.243137 0.807843 1
0.611765 0.243137 0.807843 1
0.611765 0.243137 0.807843 1
0.611765 0.243137 0.807843 1
0.611765 0.243137 0.807843 1
0.611765 0.243137 0.807843 1
0.611765 0.243137 0.807843 1
0.611765 0.243137 0.807843 1
0.611765 0.243137 0.807843 1
0.611765 0.243137 0.807843 1
0.611765 0.243137 0.807843 1
0.611765 0.243137 0.807843 1
0.611765 0.243137 0.807843 1
0.611765 0.243137 0.807843 1
0.611765 0.243137 0.807843 1
0.611765 0.243137 0.807843 1
0.611765 0.243137 0.807843 1
0.611765 0.243137 0.807843 1
0.611765 0.243137 0.807843 1
0.611765 0.243137 0.807843 1
0.611765 0.243137 0.807843 1
0.611765 0.243137 0.807843 1
0.611765 0.243137 0.807843 1
0.611765 0.243137 0.807843 1
0.611765 0.243137 0.807843 1
0.611765 0.243137 0.807843 1
0.611765 0.243137 0.807843 1
0.611765 0.243137 0.807843 1
0.611765 0.243137 0.807843 1
0.611765 0.243137 0.807843 1
0.611765 0.243137 0.807843 1
0.611765 0.243137 0.807843 1
0.611765 0.243137 0.807843 1
0.611765 0.243137 0.807843 1
0.611765 0.243137 0.807843 1
0.611765 0.243137 0.807843 1
0.611765 0.243137 0.807843 1
0.611765 0.243137 0.807843 1
0.611765 0.243137 0.807843 1
0.611765 0.243137 0.807843 1
0.611765 0.243137 0.807843 1
0.611765 0.243137 0.807843 1
0.611765 0.243137 0.807843 1
0.611765 0.243137 0.807843 1
0.611765 0.243137 0.807843 1
0.611765 0.243137 0.807843 1
0.611765 0.243137 0.807843 1
0.611765 0.243137 0.807843 1
0.611765 0.243137 0.807843 1
0.611765 0.243137 0.807843 1
0.611765 0.243137 0.807843 1
0.611765 0.243137 0.807843 1
0.611765 0.243137 0.807843 1
0.611765 0.243137 0.807843 1
0.611765 0.243137 0.807843 1
0.611765 0.243137 0.807843 1
0.611765 0.243137 0.807843 1
0.611765 0.243137 0.807843 1
0.611765 0.243137 0.807843 1
0.611765 0.243137 0.807843 1
0.611765 0.243137 0.807843 1
0.611765 0.243137 0.807843 1
0.611765 0.243137 0.807843 1
0.611765 0.243137 0.807843 1
0.611765 0.243137 0.807843 1
0.611765 0.243137 0.807843 1
0.611765 0.243137 0.807843 1
0.611765 0.243137 0.807843 1
0.611765 0.243137 0.807843 1
0.611765 0.243137 0.807843 1
0.611765 0.243137 0.807843 1
0.611765 0.243137 0.807843 1
0.611765 0.243137 0.807843 1
0.611765 0.243137 0.807843 1
0.611765 0.243137 0.807843 1
0.611765 0.243137 0.807843 1
0.611765 0.243137 0.807843 1
0.611765 0.243137 0.807843 1
0.611765 0.243137 0.807843 1
0.611765 0.243137 0.807843 1
0.611765 0.243137 0.807843 1
0.611765 0.243137 0.807843 1
0.611765 0.243137 0.807843 1
0.611765 0.243137 0.807843 1
0.611765 0.243137 0.807843 1
0.611765 0.243137 0.807843 1
0.611765 0.243137 0.807843 1
0.611765 0.243137 0.807843 1
0.611765 0.243137 0.807843 1
0.611765 0.243137 0.807843 1
0.611765 0.243137 0.807843 1
0.611765 0.243137 0.807843 1
0.611765 0.243137 0.807843 1
0.611765 0.243137 0.807843 1
0.611765 0.243137 0.807843 1
0.611765 0.243137 0.807843 1
0.611765 0.243137 0.807843 1
0.611765 0.243137 0.807843 1
0.611765 0.243137 0.807843 1
0.611765 0.243137 0.807843 1
0.611765 0.243137 0.807843 1