# vtk DataFile Version 3.0
Gocad TSurf to VTK
ASCII
DATASET POLYDATA
POINTS 1537 float
21551147.906 4597366.664 -1000.000
21551309.234 4597261.797 -1000.000
21551258.813 4597223.484 -1500.000
21551339.484 4597154.914 -1500.000
21551137.813 4597302.133 -1500.000
21551188.719 4597384.359 -722.030
21551152.406 4597426.711 -722.030
21551309.703 4597305.703 -722.030
21551229.516 4597402.047 -444.060
21551318.359 4597297.633 -721.594
21551327.500 4597333.469 -443.187
21551327.016 4597289.563 -721.157
21551344.813 4597317.328 -442.315
21551335.672 4597281.484 -720.721
21551344.328 4597273.414 -720.285
21551362.109 4597301.172 -441.442
21551352.984 4597265.344 -719.849
21551379.422 4597285.031 -440.570
21551361.641 4597257.266 -719.412
21551396.734 4597268.883 -439.697
21551551.219 4597060.141 -1000.000
21551543.125 4597106.023 -719.412
21551520.969 4597003.672 -1500.000
21551708.516 4596707.234 -1500.000
21551369.719 4597048.031 -2000.000
21551490.719 4596947.203 -2000.000
21551208.406 4597185.172 -2000.000
21551157.984 4597146.852 -2500.000
21551399.969 4596941.156 -2500.000
21551117.656 4597173.070 -2500.000
21551107.563 4597108.539 -3000.000
21551127.734 4597237.602 -2000.000
21551105.547 4597187.188 -2500.000
21551103.531 4597265.836 -2000.000
21551101.516 4597344.484 -1500.000
21550990.594 4597366.664 -2000.000
21551099.500 4597423.133 -1000.000
21551045.047 4597394.898 -1500.000
21551276.969 4597584.461 -1000.000
21551285.500 4597547.703 -722.030
21551111.594 4597479.594 -1500.000
21551041.016 4597419.094 -1500.000
21551244.703 4597600.594 -1500.000
21551123.703 4597536.063 -2000.000
21551559.297 4597721.586 -1000.000
21551456.453 4597703.438 -1500.000
21551336.344 4597583.727 -723.473
21551548.094 4597686.570 -723.473
21551325.719 4597578.227 -723.269
21551374.469 4597571.992 -446.538
21551315.094 4597572.727 -723.065
21551353.219 4597560.992 -446.130
21551307.688 4597566.469 -722.806
21551338.422 4597548.484 -445.612
21551300.297 4597560.219 -722.547
21551292.906 4597553.961 -722.289
21551323.625 4597535.969 -445.095
21551308.844 4597523.461 -444.578
21551294.047 4597510.953 -444.060
21551346.953 4597511.727 -167.642
21551324.766 4597492.961 -166.866
21551369.156 4597530.492 -168.418
21551399.875 4597512.500 108.776
21551370.281 4597487.484 109.810
21551429.453 4597537.523 107.741
21551391.328 4597549.258 -169.195
21551471.969 4597559.523 106.924
21551423.219 4597565.758 -169.807
21551514.469 4597581.516 106.107
21551455.094 4597582.250 -170.420
21551395.719 4597582.984 -446.947
21551525.672 4597616.531 -170.420
21551536.875 4597651.547 -446.947
21551556.984 4597603.516 105.290
21551557.563 4597633.031 -171.033
21551601.344 4597613.414 105.064
21551590.828 4597640.453 -171.202
21551558.141 4597662.547 -447.355
21551645.703 4597623.313 104.839
21551624.094 4597647.883 -171.371
21551602.500 4597672.453 -447.581
21551690.078 4597633.219 104.613
21551657.375 4597655.313 -171.540
21551624.688 4597677.406 -447.694
21551734.438 4597643.117 104.387
21551690.656 4597662.734 -171.710
21551646.875 4597682.352 -447.806
21551751.156 4597676.852 -171.710
21551767.859 4597710.586 -447.806
21551778.797 4597653.016 104.161
21551784.422 4597684.273 -171.879
21551823.156 4597662.914 103.936
21551817.688 4597691.703 -172.048
21551790.031 4597715.531 -447.919
21551872.188 4597654.195 104.630
21551854.469 4597685.156 -171.527
21551836.734 4597716.125 -447.685
21551891.250 4597678.617 -171.006
21551861.250 4597711.766 -447.337
21551921.234 4597645.469 105.325
21551928.016 4597672.078 -170.485
21551885.781 4597707.406 -446.990
21551970.266 4597636.750 106.020
21551998.594 4597664.008 -170.485
21552026.938 4597691.266 -446.990
21552019.297 4597628.031 106.714
21552035.375 4597657.469 -169.965
21552068.328 4597619.313 107.408
21552072.156 4597650.930 -169.444
21552051.453 4597686.906 -446.643
21552117.375 4597610.586 108.103
21552108.938 4597644.391 -168.923
21552100.500 4597678.188 -445.948
21552166.406 4597601.867 108.798
21552145.703 4597637.844 -168.402
21552125.000 4597673.828 -445.601
21552182.484 4597631.313 -167.881
21552149.531 4597669.469 -445.254
21552215.438 4597593.148 109.492
21552219.250 4597624.766 -167.360
21552174.031 4597665.109 -444.907
21552264.469 4597584.430 110.186
21552256.031 4597618.227 -166.839
21552198.563 4597660.750 -444.559
21552313.516 4597575.703 110.881
21552362.922 4597596.039 -166.839
21552412.328 4597616.375 -444.559
21552362.547 4597566.984 111.576
21552399.688 4597589.500 -166.318
21552411.578 4597558.266 112.270
21552436.469 4597582.961 -165.797
21552436.844 4597612.016 -444.212
21552460.609 4597549.547 112.655
21552473.250 4597576.422 -165.509
21552461.359 4597607.656 -443.865
21552509.656 4597540.820 112.285
21552510.031 4597569.875 -165.786
21552485.875 4597603.297 -443.673
21552558.688 4597532.102 111.916
21552546.797 4597563.344 -166.063
21552534.906 4597594.578 -444.042
21552601.125 4597526.266 111.543
21552578.625 4597558.961 -166.343
21552556.125 4597591.656 -444.228
21552643.563 4597520.430 111.171
21552610.453 4597554.586 -166.622
21552577.344 4597588.742 -444.415
21552642.281 4597550.211 -167.024
21552598.563 4597585.828 -444.683
21552686.000 4597514.594 110.634
21552671.469 4597539.602 -167.820
21552618.031 4597578.750 -445.214
21552724.906 4597500.453 109.573
21552772.297 4597511.375 -167.820
21552819.688 4597522.289 -445.214
21552763.828 4597486.313 108.511
21552801.484 4597500.766 -168.617
21552802.734 4597472.164 107.450
21552830.656 4597490.156 -169.412
21552839.141 4597515.219 -445.744
21552841.656 4597458.023 106.388
21552859.859 4597479.547 -170.209
21552858.594 4597508.141 -446.275
21552880.563 4597443.883 105.327
21552889.031 4597468.945 -171.005
21552878.063 4597501.078 -446.806
21552911.500 4597421.734 104.821
21552912.234 4597452.328 -171.384
21552912.969 4597482.930 -447.589
21552935.438 4597435.727 -171.763
21552928.438 4597471.859 -447.842
21552942.438 4597399.594 104.315
21552977.797 4597409.516 -171.763
21553013.156 4597419.430 -447.842
21552973.375 4597377.453 103.810
21553001.000 4597392.906 -172.143
21553004.313 4597355.305 103.304
21553024.203 4597376.297 -172.522
21553028.625 4597408.359 -448.095
21553047.719 4597350.438 -172.627
21553059.766 4597380.047 -448.418
21553035.672 4597320.828 103.164
21553071.219 4597324.578 -172.731
21553075.438 4597362.805 -448.487
21553067.016 4597286.344 103.025
21553094.750 4597298.719 -172.836
21553091.125 4597345.563 -448.557
21553098.375 4597251.867 102.886
21553135.078 4597258.383 -172.836
21553171.781 4597264.898 -448.557
21553129.734 4597217.391 102.746
21553158.594 4597232.523 -172.940
21553161.094 4597182.914 102.607
21553182.125 4597206.672 -173.045
21553187.469 4597247.656 -448.627
21553205.625 4597180.805 -173.149
21553218.813 4597213.180 -448.766
21553192.438 4597148.430 102.468
21553229.141 4597154.945 -173.254
21553234.500 4597195.938 -448.836
21553223.797 4597113.953 102.328
21553257.375 4597104.531 -173.254
21553290.953 4597095.109 -448.836
21553240.719 4597074.055 102.913
21553270.063 4597074.609 -172.815
21553282.750 4597044.688 -172.376
21553299.406 4597075.164 -448.543
21553257.641 4597034.156 103.498
21553295.469 4597014.766 -171.938
21553316.344 4597035.266 -447.959
21553274.578 4596994.258 104.083
21553308.156 4596984.836 -171.499
21553324.813 4597015.313 -447.666
21553291.500 4596954.359 104.668
21553324.281 4596940.469 -171.499
21553308.422 4596914.461 105.253
21553336.969 4596910.547 -171.060
21553357.063 4596926.578 -447.666
21553337.594 4596877.703 -170.066
21553365.938 4596884.734 -446.710
21553309.250 4596870.672 106.579
21553338.234 4596844.859 -169.072
21553366.375 4596862.844 -446.048
21553310.094 4596826.883 107.905
21553340.250 4596792.430 -169.072
21553340.875 4596759.594 -168.077
21553370.406 4596757.984 -446.048
21553310.922 4596783.094 109.231
21553341.500 4596726.750 -167.083
21553370.813 4596736.086 -445.385
21553311.750 4596739.313 110.557
21553342.125 4596693.914 -166.088
21553371.656 4596692.297 -444.059
21553312.594 4596695.523 111.882
21553342.750 4596661.070 -165.094
21553372.063 4596670.406 -443.396
21553313.422 4596651.734 113.208
21553343.375 4596628.227 -164.100
21553372.500 4596648.516 -442.733
21553314.266 4596607.945 114.534
21553344.000 4596595.391 -163.105
21553372.906 4596626.617 -442.070
21553315.094 4596564.156 115.860
21553339.969 4596512.703 -163.105
21553335.469 4596479.219 -161.893
21553364.844 4596461.250 -442.070
21553309.109 4596519.508 117.475
21553330.969 4596445.727 -160.681
21553361.844 4596438.930 -441.262
21553303.109 4596474.852 119.092
21553326.484 4596412.242 -159.470
21553358.844 4596416.602 -440.454
21553297.125 4596430.203 120.707
21553321.984 4596378.750 -158.258
21553352.844 4596371.953 -438.838
21553291.125 4596385.547 122.323
21553317.500 4596345.266 -157.046
21553349.859 4596349.625 -438.031
21553285.141 4596340.898 123.939
21553313.016 4596311.773 -155.835
21553346.875 4596327.297 -437.223
21553279.156 4596296.250 125.554
21553294.859 4596241.195 -155.835
21553273.156 4596251.594 127.166
21553290.359 4596207.703 -154.626
21553310.563 4596186.141 -437.223
21553285.875 4596174.219 -153.446
21553307.563 4596163.813 -436.417
21553267.172 4596206.945 128.738
21553278.000 4596143.141 -152.206
21553304.578 4596141.484 -435.631
21553256.672 4596165.516 130.391
21553270.125 4596112.070 -150.967
21553299.328 4596120.766 -434.804
21553246.172 4596124.086 132.044
21553262.250 4596081.000 -149.727
21553288.828 4596079.344 -433.151
21553235.672 4596082.656 133.698
21553254.375 4596049.922 -148.487
21553283.578 4596058.625 -432.325
21553225.172 4596041.227 135.351
21553240.563 4596016.250 -146.936
21553274.375 4596036.172 -431.291
21553206.750 4595996.320 137.419
21553226.750 4595982.563 -145.385
21553265.156 4596013.719 -430.257
21553188.328 4595951.406 139.487
21553190.438 4595885.766 -145.385
21553169.891 4595906.500 141.555
21553176.609 4595852.086 -143.833
21553192.563 4595820.125 -430.257
21553162.797 4595818.406 -142.282
[...]
POINT_DATA 1537
COLOR_SCALARS GocadColor 4
0.098039 0.8 0.87451 1
0.098039 0.8 0.87451 1
0.098039 0.8 0.87451 1
0.098039 0.8 0.87451 1
0.098039 0.8 0.87451 1
0.098039 0.8 0.87451 1
0.098039 0.8 0.87451 1
0.098039 0.8 0.87451 1
0.098039 0.8 0.87451 1
0.098039 0.8 0.87451 1
0.098039 0.8 0.87451 1
0.098039 0.8 0.87451 1
0.098039 0.8 0.87451 1
0.098039 0.8 0.87451 1
0.098039 0.8 0.87451 1
0.098039 0.8 0.87451 1
0.098039 0.8 0.87451 1
0.098039 0.8 0.87451 1
0.098039 0.8 0.87451 1
0.098039 0.8 0.87451 1
0.098039 0.8 0.87451 1
0.098039 0.8 0.87451 1
0.098039 0.8 0.87451 1
0.098039 0.8 0.87451 1
0.098039 0.8 0.87451 1
0.098039 0.8 0.87451 1
0.098039 0.8 0.87451 1
0.098039 0.8 0.87451 1
0.098039 0.8 0.87451 1
0.098039 0.8 0.87451 1
0.098039 0.8 0.87451 1
0.098039 0.8 0.87451 1
0.098039 0.8 0.87451 1
0.098039 0.8 0.87451 1
0.098039 0.8 0.87451 1
0.098039 0.8 0.87451 1
0.098039 0.8 0.87451 1
0.098039 0.8 0.87451 1
0.098039 0.8 0.87451 1
0.098039 0.8 0.87451 1
0.098039 0.8 0.87451 1
0.098039 0.8 0.87451 1
0.098039 0.8 0.87451 1
0.098039 0.8 0.87451 1
0.098039 0.8 0.87451 1
0.098039 0.8 0.87451 1
0.098039 0.8 0.87451 1
0.098039 0.8 0.87451 1
0.098039 0.8 0.87451 1
0.098039 0.8 0.87451 1
0.098039 0.8 0.87451 1
0.098039 0.8 0.87451 1
0.098039 0.8 0.87451 1
0.098039 0.8 0.87451 1
0.098039 0.8 0.87451 1
0.098039 0.8 0.87451 1
0.098039 0.8 0.87451 1
0.098039 0.8 0.87451 1
0.098039 0.8 0.87451 1
0.098039 0.8 0.87451 1
0.098039 0.8 0.87451 1
0.098039 0.8 0.87451 1
0.098039 0.8 0.87451 1
0.098039 0.8 0.87451 1
0.098039 0.8 0.87451 1
0.098039 0.8 0.87451 1
0.098039 0.8 0.87451 1
0.098039 0.8 0.87451 1
0.098039 0.8 0.87451 1
0.098039 0.8 0.87451 1
0.098039 0.8 0.87451 1
0.098039 0.8 0.87451 1
0.098039 0.8 0.87451 1
0.098039 0.8 0.87451 1
0.098039 0.8 0.87451 1
0.098039 0.8 0.87451 1
0.098039 0.8 0.87451 1
0.098039 0.8 0.87451 1
0.098039 0.8 0.87451 1
0.098039 0.8 0.87451 1
0.098039 0.8 0.87451 1
0.098039 0.8 0.87451 1
0.098039 0.8 0.87451 1
0.098039 0.8 0.87451 1
0.098039 0.8 0.87451 1
0.098039 0.8 0.87451 1
0.098039 0.8 0.87451 1
0.098039 0.8 0.87451 1
0.098039 0.8 0.87451 1
0.098039 0.8 0.87451 1
0.098039 0.8 0.87451 1
0.098039 0.8 0.87451 1
0.098039 0.8 0.87451 1
0.098039 0.8 0.87451 1
0.098039 0.8 0.87451 1
0.098039 0.8 0.87451 1
0.098039 0.8 0.87451 1
0.098039 0.8 0.87451 1
0.098039 0.8 0.87451 1
0.098039 0.8 0.87451 1
0.098039 0.8 0.87451 1
0.098039 0.8 0.87451 1
0.098039 0.8 0.87451 1
0.098039 0.8 0.87451 1
0.098039 0.8 0.87451 1
0.098039 0.8 0.87451 1
0.098039 0.8 0.87451 1
0.098039 0.8 0.87451 1
0.098039 0.8 0.87451 1
0.098039 0.8 0.87451 1
0.098039 0.8 0.87451 1
0.098039 0.8 0.87451 1
0.098039 0.8 0.87451 1
0.098039 0.8 0.87451 1
0.098039 0.8 0.87451 1
0.098039 0.8 0.87451 1
0.098039 0.8 0.87451 1
0.098039 0.8 0.87451 1
0.098039 0.8 0.87451 1
0.098039 0.8 0.87451 1
0.098039 0.8 0.87451 1
0.098039 0.8 0.87451 1
0.098039 0.8 0.87451 1
0.098039 0.8 0.87451 1
0.098039 0.8 0.87451 1
0.098039 0.8 0.87451 1
0.098039 0.8 0.87451 1
0.098039 0.8 0.87451 1
0.098039 0.8 0.87451 1
0.098039 0.8 0.87451 1
0.098039 0.8 0.87451 1
0.098039 0.8 0.87451 1
0.098039 0.8 0.87451 1
0.098039 0.8 0.87451 1
0.098039 0.8 0.87451 1
0.098039 0.8 0.87451 1
0.098039 0.8 0.87451 1
0.098039 0.8 0.87451 1
0.098039 0.8 0.87451 1
0.098039 0.8 0.87451 1
0.098039 0.8 0.87451 1
0.098039 0.8 0.87451 1
0.098039 0.8 0.87451 1
0.098039 0.8 0.87451 1
0.098039 0.8 0.87451 1
0.098039 0.8 0.87451 1
0.098039 0.8 0.87451 1
0.098039 0.8 0.87451 1
0.098039 0.8 0.87451 1
0.098039 0.8 0.87451 1
0.098039 0.8 0.87451 1
0.098039 0.8 0.87451 1
0.098039 0.8 0.87451 1
0.098039 0.8 0.87451 1
0.098039 0.8 0.87451 1
0.098039 0.8 0.87451 1
0.098039 0.8 0.87451 1
0.098039 0.8 0.87451 1
0.098039 0.8 0.87451 1
0.098039 0.8 0.87451 1
0.098039 0.8 0.87451 1
0.098039 0.8 0.87451 1
0.098039 0.8 0.87451 1
0.098039 0.8 0.87451 1
0.098039 0.8 0.87451 1
0.098039 0.8 0.87451 1
0.098039 0.8 0.87451 1
0.098039 0.8 0.87451 1
0.098039 0.8 0.87451 1
0.098039 0.8 0.87451 1
0.098039 0.8 0.87451 1
0.098039 0.8 0.87451 1
0.098039 0.8 0.87451 1
0.098039 0.8 0.87451 1
0.098039 0.8 0.87451 1
0.098039 0.8 0.87451 1
0.098039 0.8 0.87451 1
0.098039 0.8 0.87451 1
0.098039 0.8 0.87451 1
0.098039 0.8 0.87451 1
0.098039 0.8 0.87451 1
0.098039 0.8 0.87451 1
0.098039 0.8 0.87451 1
0.098039 0.8 0.87451 1
0.098039 0.8 0.87451 1
0.098039 0.8 0.87451 1
0.098039 0.8 0.87451 1
0.098039 0.8 0.87451 1
0.098039 0.8 0.87451 1
0.098039 0.8 0.87451 1
0.098039 0.8 0.87451 1
0.098039 0.8 0.87451 1
0.098039 0.8 0.87451 1
0.098039 0.8 0.87451 1
0.098039 0.8 0.87451 1
0.098039 0.8 0.87451 1
0.098039 0.8 0.87451 1
0.098039 0.8 0.87451 1
0.098039 0.8 0.87451 1
0.098039 0.8 0.87451 1
0.098039 0.8 0.87451 1
0.098039 0.8 0.87451 1
0.098039 0.8 0.87451 1
0.098039 0.8 0.87451 1
0.098039 0.8 0.87451 1
0.098039 0.8 0.87451 1
0.098039 0.8 0.87451 1
0.098039 0.8 0.87451 1
0.098039 0.8 0.87451 1
0.098039 0.8 0.87451 1
0.098039 0.8 0.87451 1
0.098039 0.8 0.87451 1
0.098039 0.8 0.87451 1
0.098039 0.8 0.87451 1
0.098039 0.8 0.87451 1
0.098039 0.8 0.87451 1
0.098039 0.8 0.87451 1
0.098039 0.8 0.87451 1
0.098039 0.8 0.87451 1
0.098039 0.8 0.87451 1
0.098039 0.8 0.87451 1
0.098039 0.8 0.87451 1
0.098039 0.8 0.87451 1
0.098039 0.8 0.87451 1
0.098039 0.8 0.87451 1
0.098039 0.8 0.87451 1
0.098039 0.8 0.87451 1
0.098039 0.8 0.87451 1
0.098039 0.8 0.87451 1
0.098039 0.8 0.87451 1
0.098039 0.8 0.87451 1
0.098039 0.8 0.87451 1
0.098039 0.8 0.87451 1
0.098039 0.8 0.87451 1
0.098039 0.8 0.87451 1
0.098039 0.8 0.87451 1
0.098039 0.8 0.87451 1
0.098039 0.8 0.87451 1
0.098039 0.8 0.87451 1
0.098039 0.8 0.87451 1
0.098039 0.8 0.87451 1
0.098039 0.8 0.87451 1
0.098039 0.8 0.87451 1
0.098039 0.8 0.87451 1
0.098039 0.8 0.87451 1
0.098039 0.8 0.87451 1
0.098039 0.8 0.87451 1
0.098039 0.8 0.87451 1
0.098039 0.8 0.87451 1
0.098039 0.8 0.87451 1
0.098039 0.8 0.87451 1
0.098039 0.8 0.87451 1
0.098039 0.8 0.87451 1
0.098039 0.8 0.87451 1
0.098039 0.8 0.87451 1
0.098039 0.8 0.87451 1
0.098039 0.8 0.87451 1
0.098039 0.8 0.87451 1
0.098039 0.8 0.87451 1
0.098039 0.8 0.87451 1
0.098039 0.8 0.87451 1
0.098039 0.8 0.87451 1
0.098039 0.8 0.87451 1
0.098039 0.8 0.87451 1
0.098039 0.8 0.87451 1
0.098039 0.8 0.87451 1
0.098039 0.8 0.87451 1
0.098039 0.8 0.87451 1
0.098039 0.8 0.87451 1
0.098039 0.8 0.87451 1
0.098039 0.8 0.87451 1
0.098039 0.8 0.87451 1
0.098039 0.8 0.87451 1
0.098039 0.8 0.87451 1
0.098039 0.8 0.87451 1
0.098039 0.8 0.87451 1
0.098039 0.8 0.87451 1
0.098039 0.8 0.87451 1
0.098039 0.8 0.87451 1
0.098039 0.8 0.87451 1
0.098039 0.8 0.87451 1
0.098039 0.8 0.87451 1
0.098039 0.8 0.87451 1
0.098039 0.8 0.87451 1
0.098039 0.8 0.87451 1
0.098039 0.8 0.87451 1
0.098039 0.8 0.87451 1
0.098039 0.8 0.87451 1
0.098039 0.8 0.87451 1
0.098039 0.8 0.87451 1
0.098039 0.8 0.87451 1
0.098039 0.8 0.87451 1
0.098039 0.8 0.87451 1
0.098039 0.8 0.87451 1
0.098039 0.8 0.87451 1
0.098039 0.8 0.87451 1
0.098039 0.8 0.87451 1
0.098039 0.8 0.87451 1
0.098039 0.8 0.87451 1
0.098039 0.8 0.87451 1
0.098039 0.8 0.87451 1
0.098039 0.8 0.87451 1
0.098039 0.8 0.87451 1
0.098039 0.8 0.87451 1
0.098039 0.8 0.87451 1
0.098039 0.8 0.87451 1
0.098039 0.8 0.87451 1
0.098039 0.8 0.87451 1
0.098039 0.8 0.87451 1
0.098039 0.8 0.87451 1
0.098039 0.8 0.87451 1
0.098039 0.8 0.87451 1
0.098039 0.8 0.87451 1
0.098039 0.8 0.87451 1
0.098039 0.8 0.87451 1
0.098039 0.8 0.87451 1
0.098039 0.8 0.87451 1
0.098039 0.8 0.87451 1
0.098039 0.8 0.87451 1
0.098039 0.8 0.87451 1
0.098039 0.8 0.87451 1
0.098039 0.8 0.87451 1
0.098039 0.8 0.87451 1
0.098039 0.8 0.87451 1
0.098039 0.8 0.87451 1
0.098039 0.8 0.87451 1
0.098039 0.8 0.87451 1
0.098039 0.8 0.87451 1
0.098039 0.8 0.87451 1
0.098039 0.8 0.87451 1
0.098039 0.8 0.87451 1
0.098039 0.8 0.87451 1
0.098039 0.8 0.87451 1
0.098039 0.8 0.87451 1
0.098039 0.8 0.87451 1
0.098039 0.8 0.87451 1
0.098039 0.8 0.87451 1
0.098039 0.8 0.87451 1
0.098039 0.8 0.87451 1
0.098039 0.8 0.87451 1
0.098039 0.8 0.87451 1
0.098039 0.8 0.87451 1
0.098039 0.8 0.87451 1
0.098039 0.8 0.87451 1
0.098039 0.8 0.87451 1
0.098039 0.8 0.87451 1
0.098039 0.8 0.87451 1
0.098039 0.8 0.87451 1
0.098039 0.8 0.87451 1
0.098039 0.8 0.87451 1
0.098039 0.8 0.87451 1
0.098039 0.8 0.87451 1
0.098039 0.8 0.87451 1
0.098039 0.8 0.87451 1
0.098039 0.8 0.87451 1
0.098039 0.8 0.87451 1
0.098039 0.8 0.87451 1
0.098039 0.8 0.87451 1
0.098039 0.8 0.87451 1
0.098039 0.8 0.87451 1
0.098039 0.8 0.87451 1
0.098039 0.8 0.87451 1
0.098039 0.8 0.87451 1
0.098039 0.8 0.87451 1
0.098039 0.8 0.87451 1
0.098039 0.8 0.87451 1
0.098039 0.8 0.87451 1
0.098039 0.8 0.87451 1
0.098039 0.8 0.87451 1
0.098039 0.8 0.87451 1
0.098039 0.8 0.87451 1
0.098039 0.8 0.87451 1
0.098039 0.8 0.87451 1
0.098039 0.8 0.87451 1
0.098039 0.8 0.87451 1
0.098039 0.8 0.87451 1
0.098039 0.8 0.87451 1
0.098039 0.8 0.87451 1
0.098039 0.8 0.87451 1
0.098039 0.8 0.87451 1
0.098039 0.8 0.87451 1
0.098039 0.8 0.87451 1
0.098039 0.8 0.87451 1
0.098039 0.8 0.87451 1
0.098039 0.8 0.87451 1
0.098039 0.8 0.87451 1
0.098039 0.8 0.87451 1
0.098039 0.8 0.87451 1
0.098039 0.8 0.87451 1
0.098039 0.8 0.87451 1
0.098039 0.8 0.87451 1
0.098039 0.8 0.87451 1
0.098039 0.8 0.87451 1
0.098039 0.8 0.87451 1
0.098039 0.8 0.87451 1
0.098039 0.8 0.87451 1
0.098039 0.8 0.87451 1
0.098039 0.8 0.87451 1
0.098039 0.8 0.87451 1
0.098039 0.8 0.87451 1
0.098039 0.8 0.87451 1
0.098039 0.8 0.87451 1
0.098039 0.8 0.87451 1
0.098039 0.8 0.87451 1
0.098039 0.8 0.87451 1
0.098039 0.8 0.87451 1
0.098039 0.8 0.87451 1
0.098039 0.8 0.87451 1
0.098039 0.8 0.87451 1
0.098039 0.8 0.87451 1
0.098039 0.8 0.87451 1
0.098039 0.8 0.87451 1
0.098039 0.8 0.87451 1
0.098039 0.8 0.87451 1
0.098039 0.8 0.87451 1
0.098039 0.8 0.87451 1
0.098039 0.8 0.87451 1
0.098039 0.8 0.87451 1
0.098039 0.8 0.87451 1
0.098039 0.8 0.87451 1
0.098039 0.8 0.87451 1
0.098039 0.8 0.87451 1
0.098039 0.8 0.87451 1
0.098039 0.8 0.87451 1
0.098039 0.8 0.87451 1
0.098039 0.8 0.87451 1
0.098039 0.8 0.87451 1
0.098039 0.8 0.87451 1
0.098039 0.8 0.87451 1
0.098039 0.8 0.87451 1
0.098039 0.8 0.87451 1
0.098039 0.8 0.87451 1
0.098039 0.8 0.87451 1
0.098039 0.8 0.87451 1
0.098039 0.8 0.87451 1
0.098039 0.8 0.87451 1
0.098039 0.8 0.87451 1
0.098039 0.8 0.87451 1
0.098039 0.8 0.87451 1
0.098039 0.8 0.87451 1
0.098039 0.8 0.87451 1
0.098039 0.8 0.87451 1
0.098039 0.8 0.87451 1
0.098039 0.8 0.87451 1
0.098039 0.8 0.87451 1
0.098039 0.8 0.87451 1
0.098039 0.8 0.87451 1
0.098039 0.8 0.87451 1
0.098039 0.8 0.87451 1
0.098039 0.8 0.87451 1
0.098039 0.8 0.87451 1
0.098039 0.8 0.87451 1
0.098039 0.8 0.87451 1
0.098039 0.8 0.87451 1
0.098039 0.8 0.87451 1
0.098039 0.8 0.87451 1
0.098039 0.8 0.87451 1
0.098039 0.8 0.87451 1
0.098039 0.8 0.87451 1
0.098039 0.8 0.87451 1
0.098039 0.8 0.87451 1
0.098039 0.8 0.87451 1
0.098039 0.8 0.87451 1
0.098039 0.8 0.87451 1
0.098039 0.8 0.87451 1
0.098039 0.8 0.87451 1
0.098039 0.8 0.87451 1
0.098039 0.8 0.87451 1
0.098039 0.8 0.87451 1
0.098039 0.8 0.87451 1
0.098039 0.8 0.87451 1
0.098039 0.8 0.87451 1
0.098039 0.8 0.87451 1
0.098039 0.8 0.87451 1
0.098039 0.8 0.87451 1
0.098039 0.8 0.87451 1
0.098039 0.8 0.87451 1
0.098039 0.8 0.87451 1
0.098039 0.8 0.87451 1
0.098039 0.8 0.87451 1
0.098039 0.8 0.87451 1
0.098039 0.8 0.87451 1
0.098039 0.8 0.87451 1
0.098039 0.8 0.87451 1
0.098039 0.8 0.87451 1
0.098039 0.8 0.87451 1
0.098039 0.8 0.87451 1
0.098039 0.8 0.87451 1
0.098039 0.8 0.87451 1
0.098039 0.8 0.87451 1
0.098039 0.8 0.87451 1
0.098039 0.8 0.87451 1
0.098039 0.8 0.87451 1
0.098039 0.8 0.87451 1
0.098039 0.8 0.87451 1
0.098039 0.8 0.87451 1
0.098039 0.8 0.87451 1
0.098039 0.8 0.87451 1
0.098039 0.8 0.87451 1
0.098039 0.8 0.87451 1
0.098039 0.8 0.87451 1
0.098039 0.8 0.87451 1
0.098039 0.8 0.87451 1
0.098039 0.8 0.87451 1
0.098039 0.8 0.87451 1
0.098039 0.8 0.87451 1
0.098039 0.8 0.87451 1
0.098039 0.8 0.87451 1
0.098039 0.8 0.87451 1
0.098039 0.8 0.87451 1
0.098039 0.8 0.87451 1
0.098039 0.8 0.87451 1
0.098039 0.8 0.87451 1
0.098039 0.8 0.87451 1
0.098039 0.8 0.87451 1
0.098039 0.8 0.87451 1
0.098039 0.8 0.87451 1
0.098039 0.8 0.87451 1
0.098039 0.8 0.87451 1
0.098039 0.8 0.87451 1
0.098039 0.8 0.87451 1
0.098039 0.8 0.87451 1
0.098039 0.8 0.87451 1
0.098039 0.8 0.87451 1
0.098039 0.8 0.87451 1
0.098039 0.8 0.87451 1
0.098039 0.8 0.87451 1
0.098039 0.8 0.87451 1
0.098039 0.8 0.87451 1
0.098039 0.8 0.87451 1
0.098039 0.8 0.87451 1
0.098039 0.8 0.87451 1
0.098039 0.8 0.87451 1
0.098039 0.8 0.87451 1
0.098039 0.8 0.87451 1
0.098039 0.8 0.87451 1
0.098039 0.8 0.87451 1
0.098039 0.8 0.87451 1
0.098039 0.8 0.87451 1
0.098039 0.8 0.87451 1
0.098039 0.8 0.87451 1
0.098039 0.8 0.87451 1
0.098039 0.8 0.87451 1
0.098039 0.8 0.87451 1
0.098039 0.8 0.87451 1
0.098039 0.8 0.87451 1
0.098039 0.8 0.87451 1
0.098039 0.8 0.87451 1
0.098039 0.8 0.87451 1
0.098039 0.8 0.87451 1
0.098039 0.8 0.87451 1
0.098039 0.8 0.87451 1
0.098039 0.8 0.87451 1
0.098039 0.8 0.87451 1
0.098039 0.8 0.87451 1
0.098039 0.8 0.87451 1
0.098039 0.8 0.87451 1
0.098039 0.8 0.87451 1
0.098039 0.8 0.87451 1
0.098039 0.8 0.87451 1
0.098039 0.8 0.87451 1
0.098039 0.8 0.87451 1
0.098039 0.8 0.87451 1
0.098039 0.8 0.87451 1
0.098039 0.8 0.87451 1
0.098039 0.8 0.87451 1
0.098039 0.8 0.87451 1
0.098039 0.8 0.87451 1
0.098039 0.8 0.87451 1
0.098039 0.8 0.87451 1
0.098039 0.8 0.87451 1
0.098039 0.8 0.87451 1
0.098039 0.8 0.87451 1
0.098039 0.8 0.87451 1
0.098039 0.8 0.87451 1
0.098039 0.8 0.87451 1
0.098039 0.8 0.87451 1
0.098039 0.8 0.87451 1
0.098039 0.8 0.87451 1
0.098039 0.8 0.87451 1
0.098039 0.8 0.87451 1
0.098039 0.8 0.87451 1
0.098039 0.8 0.87451 1
0.098039 0.8 0.87451 1
0.098039 0.8 0.87451 1
0.098039 0.8 0.87451 1
0.098039 0.8 0.87451 1
0.098039 0.8 0.87451 1
0.098039 0.8 0.87451 1
0.098039 0.8 0.87451 1
0.098039 0.8 0.87451 1
0.098039 0.8 0.87451 1
0.098039 0.8 0.87451 1
0.098039 0.8 0.87451 1
0.098039 0.8 0.87451 1
0.098039 0.8 0.87451 1
0.098039 0.8 0.87451 1
0.098039 0.8 0.87451 1
0.098039 0.8 0.87451 1
0.098039 0.8 0.87451 1
0.098039 0.8 0.87451 1
0.098039 0.8 0.87451 1
0.098039 0.8 0.87451 1
0.098039 0.8 0.87451 1
0.098039 0.8 0.87451 1
0.098039 0.8 0.87451 1
0.098039 0.8 0.87451 1
0.098039 0.8 0.87451 1
0.098039 0.8 0.87451 1
0.098039 0.8 0.87451 1
0.098039 0.8 0.87451 1
0.098039 0.8 0.87451 1
0.098039 0.8 0.87451 1
0.098039 0.8 0.87451 1
0.098039 0.8 0.87451 1
0.098039 0.8 0.87451 1
0.098039 0.8 0.87451 1
0.098039 0.8 0.87451 1
0.098039 0.8 0.87451 1
0.098039 0.8 0.87451 1
0.098039 0.8 0.87451 1
0.098039 0.8 0.87451 1
0.098039 0.8 0.87451 1
0.098039 0.8 0.87451 1
0.098039 0.8 0.87451 1
0.098039 0.8 0.87451 1
0.098039 0.8 0.87451 1
0.098039 0.8 0.87451 1
0.098039 0.8 0.87451 1
0.098039 0.8 0.87451 1
0.098039 0.8 0.87451 1
0.098039 0.8 0.87451 1
0.098039 0.8 0.87451 1
0.098039 0.8 0.87451 1
0.098039 0.8 0.87451 1
0.098039 0.8 0.87451 1
0.098039 0.8 0.87451 1
0.098039 0.8 0.87451 1
0.098039 0.8 0.87451 1
0.098039 0.8 0.87451 1
0.098039 0.8 0.87451 1
0.098039 0.8 0.87451 1
0.098039 0.8 0.87451 1
0.098039 0.8 0.87451 1
0.098039 0.8 0.87451 1
0.098039 0.8 0.87451 1
0.098039 0.8 0.87451 1
0.098039 0.8 0.87451 1
0.098039 0.8 0.87451 1
0.098039 0.8 0.87451 1
0.098039 0.8 0.87451 1
0.098039 0.8 0.87451 1
0.098039 0.8 0.87451 1
0.098039 0.8 0.87451 1
0.098039 0.8 0.87451 1
0.098039 0.8 0.87451 1
0.098039 0.8 0.87451 1
0.098039 0.8 0.87451 1
0.098039 0.8 0.87451 1
0.098039 0.8 0.87451 1
0.098039 0.8 0.87451 1
0.098039 0.8 0.87451 1
0.098039 0.8 0.87451 1
0.098039 0.8 0.87451 1
0.098039 0.8 0.87451 1
0.098039 0.8 0.87451 1
0.098039 0.8 0.87451 1
0.098039 0.8 0.87451 1
0.098039 0.8 0.87451 1
0.098039 0.8 0.87451 1
0.098039 0.8 0.87451 1
0.098039 0.8 0.87451 1
0.098039 0.8 0.87451 1
0.098039 0.8 0.87451 1
0.098039 0.8 0.87451 1
0.098039 0.8 0.87451 1
0.098039 0.8 0.87451 1
0.098039 0.8 0.87451 1
0.098039 0.8 0.87451 1
0.098039 0.8 0.87451 1
0.098039 0.8 0.87451 1
0.098039 0.8 0.87451 1
0.098039 0.8 0.87451 1
0.098039 0.8 0.87451 1
0.098039 0.8 0.87451 1
0.098039 0.8 0.87451 1
0.098039 0.8 0.87451 1
0.098039 0.8 0.87451 1
0.098039 0.8 0.87451 1
0.098039 0.8 0.87451 1
0.098039 0.8 0.87451 1
0.098039 0.8 0.87451 1
0.098039 0.8 0.87451 1
0.098039 0.8 0.87451 1
0.098039 0.8 0.87451 1
0.098039 0.8 0.87451 1
0.098039 0.8 0.87451 1
0.098039 0.8 0.87451 1
0.098039 0.8 0.87451 1
0.098039 0.8 0.87451 1
0.098039 0.8 0.87451 1
0.098039 0.8 0.87451 1
0.098039 0.8 0.87451 1
0.098039 0.8 0.87451 1
0.098039 0.8 0.87451 1
0.098039 0.8 0.87451 1
0.098039 0.8 0.87451 1
0.098039 0.8 0.87451 1
0.098039 0.8 0.87451 1
0.098039 0.8 0.87451 1
0.098039 0.8 0.87451 1
0.098039 0.8 0.87451 1
0.098039 0.8 0.87451 1
0.098039 0.8 0.87451 1
0.098039 0.8 0.87451 1
0.098039 0.8 0.87451 1
0.098039 0.8 0.87451 1
0.098039 0.8 0.87451 1
0.098039 0.8 0.87451 1
0.098039 0.8 0.87451 1
0.098039 0.8 0.87451 1
0.098039 0.8 0.87451 1
0.098039 0.8 0.87451 1
0.098039 0.8 0.87451 1
0.098039 0.8 0.87451 1
0.098039 0.8 0.87451 1
0.098039 0.8 0.87451 1
0.098039 0.8 0.87451 1
0.098039 0.8 0.87451 1
0.098039 0.8 0.87451 1
0.098039 0.8 0.87451 1
0.098039 0.8 0.87451 1
0.098039 0.8 0.87451 1
0.098039 0.8 0.87451 1
0.098039 0.8 0.87451 1
0.098039 0.8 0.87451 1
0.098039 0.8 0.87451 1
0.098039 0.8 0.87451 1
0.098039 0.8 0.87451 1
0.098039 0.8 0.87451 1
0.098039 0.8 0.87451 1
0.098039 0.8 0.87451 1
0.098039 0.8 0.87451 1
0.098039 0.8 0.87451 1
0.098039 0.8 0.87451 1
0.098039 0.8 0.87451 1
0.098039 0.8 0.87451 1
0.098039 0.8 0.87451 1
0.098039 0.8 0.87451 1
0.098039 0.8 0.87451 1
0.098039 0.8 0.87451 1
0.098039 0.8 0.87451 1
0.098039 0.8 0.87451 1
0.098039 0.8 0.87451 1
0.098039 0.8 0.87451 1
0.098039 0.8 0.87451 1
0.098039 0.8 0.87451 1
0.098039 0.8 0.87451 1
0.098039 0.8 0.87451 1
0.098039 0.8 0.87451 1
0.098039 0.8 0.87451 1
0.098039 0.8 0.87451 1
0.098039 0.8 0.87451 1
0.098039 0.8 0.87451 1
0.098039 0.8 0.87451 1
0.098039 0.8 0.87451 1
0.098039 0.8 0.87451 1
0.098039 0.8 0.87451 1
0.098039 0.8 0.87451 1
0.098039 0.8 0.87451 1
0.098039 0.8 0.87451 1
0.098039 0.8 0.87451 1
0.098039 0.8 0.87451 1
0.098039 0.8 0.87451 1
0.098039 0.8 0.87451 1
0.098039 0.8 0.87451 1
0.098039 0.8 0.87451 1
0.098039 0.8 0.87451 1
0.098039 0.8 0.87451 1
0.098039 0.8 0.87451 1
0.098039 0.8 0.87451 1
0.098039 0.8 0.87451 1
0.098039 0.8 0.87451 1
0.098039 0.8 0.87451 1
0.098039 0.8 0.87451 1
0.098039 0.8 0.87451 1
0.098039 0.8 0.87451 1
0.098039 0.8 0.87451 1
0.098039 0.8 0.87451 1
0.098039 0.8 0.87451 1
0.098039 0.8 0.87451 1
0.098039 0.8 0.87451 1
0.098039 0.8 0.87451 1
0.098039 0.8 0.87451 1
0.098039 0.8 0.87451 1
0.098039 0.8 0.87451 1
0.098039 0.8 0.87451 1
0.098039 0.8 0.87451 1
0.098039 0.8 0.87451 1
0.098039 0.8 0.87451 1
0.098039 0.8 0.87451 1
0.098039 0.8 0.87451 1
0.098039 0.8 0.87451 1
0.098039 0.8 0.87451 1
0.098039 0.8 0.87451 1
0.098039 0.8 0.87451 1
0.098039 0.8 0.87451 1
0.098039 0.8 0.87451 1
0.098039 0.8 0.87451 1
0.098039 0.8 0.87451 1
0.098039 0.8 0.87451 1
0.098039 0.8 0.87451 1
0.098039 0.8 0.87451 1
0.098039 0.8 0.87451 1
0.098039 0.8 0.87451 1
0.098039 0.8 0.87451 1
0.098039 0.8 0.87451 1
0.098039 0.8 0.87451 1
0.098039 0.8 0.87451 1
0.098039 0.8 0.87451 1
0.098039 0.8 0.87451 1
0.098039 0.8 0.87451 1
0.098039 0.8 0.87451 1
0.098039 0.8 0.87451 1
0.098039 0.8 0.87451 1
0.098039 0.8 0.87451 1
0.098039 0.8 0.87451 1
0.098039 0.8 0.87451 1
0.098039 0.8 0.87451 1
0.098039 0.8 0.87451 1
0.098039 0.8 0.87451 1
0.098039 0.8 0.87451 1
0.098039 0.8 0.87451 1
0.098039 0.8 0.87451 1
0.098039 0.8 0.87451 1
0.098039 0.8 0.87451 1
0.098039 0.8 0.87451 1
0.098039 0.8 0.87451 1
0.098039 0.8 0.87451 1
0.098039 0.8 0.87451 1
0.098039 0.8 0.87451 1
0.098039 0.8 0.87451 1
0.098039 0.8 0.87451 1
0.098039 0.8 0.87451 1
0.098039 0.8 0.87451 1
0.098039 0.8 0.87451 1
0.098039 0.8 0.87451 1
0.098039 0.8 0.87451 1
0.098039 0.8 0.87451 1
0.098039 0.8 0.87451 1
0.098039 0.8 0.87451 1
0.098039 0.8 0.87451 1
0.098039 0.8 0.87451 1
0.098039 0.8 0.87451 1
0.098039 0.8 0.87451 1
0.098039 0.8 0.87451 1
0.098039 0.8 0.87451 1
0.098039 0.8 0.87451 1
0.098039 0.8 0.87451 1
0.098039 0.8 0.87451 1
0.098039 0.8 0.87451 1
0.098039 0.8 0.87451 1
0.098039 0.8 0.87451 1
0.098039 0.8 0.87451 1
0.098039 0.8 0.87451 1
0.098039 0.8 0.87451 1
0.098039 0.8 0.87451 1