# vtk DataFile Version 3.0
Gocad TSurf to VTK
ASCII
DATASET POLYDATA
POINTS 9752 float
21575229.891 4562163.809 -1000.000
21575498.984 4562437.617 -1500.000
21575145.250 4562243.898 -1500.000
21575060.594 4562323.992 -2000.000
21573925.406 4561550.270 -1500.000
21576779.609 4563073.430 -1000.000
21576661.281 4563119.832 -1500.000
21575460.875 4562195.715 -627.948
21575449.375 4562191.922 -627.130
21576623.156 4562877.930 -627.948
21576466.703 4562682.434 -255.896
21576634.656 4562881.727 -628.767
21576489.688 4562690.023 -257.534
21576646.141 4562885.520 -629.585
21576512.672 4562697.609 -259.170
21576657.641 4562889.316 -630.404
21576535.656 4562705.203 -260.808
21576669.125 4562893.109 -631.222
21576558.656 4562712.789 -262.445
21576680.625 4562896.906 -631.256
21576581.625 4562720.379 -262.512
21576692.109 4562900.699 -630.481
21576604.625 4562727.969 -260.962
21576703.609 4562904.492 -629.706
21576627.594 4562735.555 -259.412
21576715.094 4562908.289 -628.931
21576650.594 4562743.148 -257.863
21576726.656 4562911.914 -628.132
21576673.688 4562750.398 -256.265
21576738.188 4562915.543 -627.334
21576696.781 4562757.656 -254.668
21576749.750 4562919.172 -626.535
21576719.875 4562764.910 -253.070
21576761.297 4562922.797 -625.736
21576742.984 4562772.164 -251.473
21576772.844 4562926.422 -624.937
21576766.094 4562779.418 -249.875
21576784.391 4562930.051 -624.139
21576789.188 4562786.672 -248.278
21576795.938 4562933.680 -623.340
21576812.281 4562793.930 -246.680
21576806.078 4562938.938 -622.861
21576832.563 4562804.445 -245.723
21576816.219 4562944.195 -622.508
21576852.813 4562814.965 -245.016
21576826.344 4562949.457 -622.250
21576873.094 4562825.484 -244.501
21576836.484 4562954.715 -621.992
21576893.359 4562836.000 -243.984
21576846.625 4562959.977 -621.734
21576856.750 4562965.234 -621.476
21576913.625 4562846.520 -243.468
21576866.891 4562970.492 -621.219
21576933.906 4562857.039 -242.953
21576877.031 4562975.754 -620.961
21576954.156 4562867.559 -242.437
21576886.094 4562982.629 -620.959
21576974.438 4562878.078 -241.921
21576895.156 4562989.504 -620.958
21576992.563 4562891.828 -241.919
21576904.219 4562996.379 -620.957
21577010.719 4562905.578 -241.916
21576913.297 4563003.254 -620.956
21577028.844 4562919.328 -241.914
21576922.359 4563010.129 -620.955
21577046.969 4562933.078 -241.912
21576931.422 4563017.004 -620.954
21577065.109 4562946.828 -241.910
21577925.047 4563376.633 -1000.000
21577790.500 4563244.406 -620.954
21577082.391 4563271.434 -1500.000
21577941.469 4563498.836 -1500.000
21576542.938 4563166.234 -2000.000
21575768.078 4562711.422 -2000.000
21577385.188 4563469.438 -2000.000
21576449.688 4563202.793 -2393.977
21576598.203 4563259.043 -2409.638
21576183.063 4563037.441 -2355.769
21575940.875 4562887.238 -2321.062
21575764.797 4562784.703 -2296.874
21575303.906 4562531.332 -2292.984
21575011.906 4562370.809 -2290.519
21575011.406 4562370.535 -2290.544
21574748.922 4562224.492 -2303.066
21574201.500 4561835.492 -2000.000
21574421.344 4562042.227 -2318.695
21574157.500 4561794.113 -1936.212
21574192.078 4561831.156 -2000.000
21574194.219 4561833.457 -2003.962
21574366.500 4562018.035 -2321.810
21577455.063 4563583.598 -2500.000
21577687.969 4563667.445 -2500.000
21577957.906 4563621.039 -2000.000
21577639.219 4563653.035 -2517.641
21577702.313 4563676.824 -2523.685
21577818.766 4563709.918 -2533.295
21577974.328 4563743.246 -2500.000
21577976.188 4563757.090 -2556.637
21578269.109 4563844.313 -2500.000
21578197.734 4563841.520 -2592.979
21578212.891 4563848.582 -2600.971
21578393.344 4563911.941 -2692.443
21578539.766 4563960.266 -2750.000
21579094.977 4564143.504 -2968.243
21579169.883 4564168.652 -3000.000
21579153.461 4564071.719 -2500.000
21579108.109 4564152.770 -3000.000
21579121.563 4564163.809 -3032.534
21579135.227 4564175.977 -3069.680
21579294.836 4564221.203 -3500.000
21579477.094 4564221.203 -3500.000
21579911.055 4564168.652 -3000.000
21579335.695 4564232.781 -3610.164
21579360.055 4564235.375 -3634.845
21579340.664 4564262.594 -3624.583
21579401.289 4564297.004 -3500.000
21579809.984 4564269.723 -3000.000
21579330.617 4564292.414 -3598.657
21579327.414 4564301.934 -3590.382
21579293.664 4564309.422 -3500.000
21579222.047 4564325.309 -3308.188
21579154.734 4564340.242 -3127.915
21578951.344 4564368.793 -3000.000
21578968.156 4564442.301 -2500.000
21579625.109 4564366.500 -2500.000
21578934.680 4564372.117 -2990.707
21578892.359 4564501.258 -2500.000
21579002.273 4564513.813 -2000.000
21578933.281 4564373.172 -2990.864
21578563.891 4564678.129 -2500.000
21578850.672 4564631.727 -2000.000
21578926.703 4564376.887 -2990.082
21578504.234 4564615.211 -2939.907
21578589.156 4565158.203 -2500.000
21578648.531 4565069.691 -2000.000
21578501.875 4564640.891 -2968.933
21578529.781 4565246.719 -3000.000
21578681.813 4565318.230 -2500.000
21578499.672 4564674.516 -3000.000
21578482.719 4565219.383 -3150.809
21578499.563 4564665.988 -2997.305
21578496.078 4565308.320 -3190.083
21578646.063 4565763.641 -3465.264
21578712.266 4565908.199 -3500.000
21578921.219 4566293.109 -3500.000
21579169.883 4566425.855 -3000.000
21578877.984 4566270.027 -3586.940
21578956.820 4566444.918 -3628.306
21579114.930 4566655.273 -3500.000
21579027.102 4566600.805 -3665.177
21579088.805 4566764.313 -3737.635
21579182.102 4567099.191 -3867.027
21579519.203 4567691.230 -3500.000
21579708.914 4567807.129 -3000.000
21579187.852 4567119.828 -3875.000
21579210.313 4567269.941 -4000.000
21579329.484 4567575.328 -4000.000
21579666.383 4568148.051 -4000.000
21579228.469 4567391.309 -4101.063
21579236.148 4567442.660 -4143.824
21579248.609 4567525.918 -4213.153
21579645.117 4568318.512 -4500.000
21579299.547 4567684.230 -4386.718
21579332.789 4567787.551 -4500.000
21579339.281 4567807.730 -4522.123
21579469.617 4568160.953 -4840.696
21579623.852 4568488.973 -5000.000
21579838.828 4568579.605 -4500.000
21579499.508 4568241.945 -4913.745
21579534.797 4568337.586 -5000.000
21580499.781 4569432.281 -5000.000
21580495.781 4569287.086 -4500.000
21580053.813 4568670.238 -4000.000
21580697.922 4569396.578 -4500.000
21580491.781 4569141.891 -4000.000
21581342.023 4569903.938 -5000.000
21581329.602 4569750.320 -4500.000
21580896.055 4569360.875 -4000.000
21582386.398 4569971.316 -5000.000
21582112.883 4569800.855 -4500.000
21581839.359 4569630.391 -4000.000
21582340.281 4569842.969 -4500.000
21582294.172 4569714.617 -4000.000
21583194.953 4569533.352 -5000.000
21582946.703 4569514.492 -4500.000
21582698.453 4569495.633 -4000.000
21583157.258 4569405.000 -4500.000
21583119.563 4569276.652 -4000.000
21584104.570 4568724.805 -5000.000
21583839.469 4568798.594 -4500.000
21583574.375 4568872.379 -4000.000
21584024.766 4568689.102 -4500.000
21583944.961 4568653.398 -4000.000
21584913.117 4567949.941 -5000.000
21584631.172 4568107.953 -4500.000
21584349.234 4568265.965 -4000.000
21584850.156 4567897.395 -4500.000
21584787.203 4567844.844 -4000.000
21585721.672 4567646.734 -5000.000
21585456.578 4567669.988 -4500.000
21585191.477 4567693.242 -4000.000
21585641.867 4567602.609 -4500.000
21585562.063 4567558.484 -4000.000
21586062.984 4567577.344 -4500.000
21586641.484 4567606.414 -4709.473
21586662.594 4567603.695 -4689.870
21586330.445 4567646.734 -5000.000
21586732.430 4567594.691 -4625.000
21586867.109 4567577.344 -4500.000
21586404.297 4567507.949 -4000.000
21587059.352 4567552.582 -4321.579
21587084.734 4567550.918 -4309.594
21587364.453 4567507.949 -4000.000
21586745.617 4567438.555 -3500.000
21587408.016 4567529.734 -4156.959
21587471.125 4567519.020 -4125.458
21587722.477 4567476.359 -4000.000
21587225.688 4567438.555 -3500.000
21587848.008 4567455.051 -3937.340
21587974.273 4567433.621 -3874.316
21588084.773 4567362.754 -3500.000
21587086.930 4567369.164 -3000.000
21588430.094 4567312.219 -3500.000
21588232.375 4567268.094 -3000.000
21588149.711 4567394.809 -3784.407
21588476.359 4567322.543 -3617.006
21588693.016 4567251.547 -3500.000
21589108.305 4567065.957 -3000.000
21589096.305 4567119.383 -3282.196
21589192.648 4567059.348 -3222.788
21589345.695 4566827.324 -3093.016
21589467.805 4566646.539 -3000.000
21589007.656 4566935.332 -2500.000
21588350.711 4567086.934 -2500.000
21589585.414 4566463.973 -2908.559
21589462.469 4566404.719 -2500.000
21589210.219 4566450.965 -2000.000
21589645.148 4566371.230 -2862.108
21589242.141 4565670.363 -2884.133
21589058.195 4565722.504 -2500.000
21588940.703 4565996.156 -2000.000
21589149.648 4565509.504 -2889.188
21589091.883 4565646.703 -2500.000
21589008.078 4565844.555 -2000.000
21589156.109 4565495.074 -2883.198
21589075.039 4565570.902 -2500.000
21588974.391 4565692.949 -2000.000
21589151.789 4565477.832 -2881.296
21588957.125 4565461.410 -2500.000
21589126.180 4565451.699 -2886.740
21588523.695 4564769.699 -3000.000
21588367.133 4564606.617 -3000.000
21588350.711 4564829.734 -2500.000
21588386.047 4564613.684 -3025.830
21588368.352 4564593.938 -3029.220
21588363.867 4564588.871 -3030.065
21588318.875 4564537.574 -3039.501
21587698.445 4563830.211 -3169.625
21587524.898 4563730.688 -3000.000
21588123.305 4564627.594 -2500.000
21587605.438 4563731.391 -3174.021
21587517.398 4563630.430 -3176.292
21587181.953 4563156.328 -3162.132
21586750.039 4562618.934 -3000.000
21587340.031 4563692.711 -2500.000
21587070.563 4562970.852 -3212.664
21586948.336 4562767.340 -3268.112
21586840.477 4562615.570 -3262.213
21586446.352 4562178.598 -3297.863
21586103.422 4561798.375 -3328.883
21585840.414 4561641.934 -3000.000
21586556.750 4562682.023 -2500.000
21585849.375 4561534.125 -3360.342
21585796.414 4561458.863 -3357.080
21585468.859 4560975.980 -3388.701
21585389.641 4560860.379 -3392.826
21585243.172 4560687.652 -3278.030
21584944.094 4560334.949 -3043.617
21584871.969 4560245.570 -3000.000
21584867.477 4560245.250 -2987.329
21585470.250 4561351.281 -2500.000
21585874.531 4561949.273 -2500.000
21584662.789 4560005.051 -2874.348
21584437.516 4559740.680 -2750.000
21584383.766 4559784.719 -2500.000
[...]
POINT_DATA 9752
COLOR_SCALARS GocadColor 4
0.960784 0.870588 0.701961 1
0.960784 0.870588 0.701961 1
0.960784 0.870588 0.701961 1
0.960784 0.870588 0.701961 1
0.960784 0.870588 0.701961 1
0.960784 0.870588 0.701961 1
0.960784 0.870588 0.701961 1
0.960784 0.870588 0.701961 1
0.960784 0.870588 0.701961 1
0.960784 0.870588 0.701961 1
0.960784 0.870588 0.701961 1
0.960784 0.870588 0.701961 1
0.960784 0.870588 0.701961 1
0.960784 0.870588 0.701961 1
0.960784 0.870588 0.701961 1
0.960784 0.870588 0.701961 1
0.960784 0.870588 0.701961 1
0.960784 0.870588 0.701961 1
0.960784 0.870588 0.701961 1
0.960784 0.870588 0.701961 1
0.960784 0.870588 0.701961 1
0.960784 0.870588 0.701961 1
0.960784 0.870588 0.701961 1
0.960784 0.870588 0.701961 1
0.960784 0.870588 0.701961 1
0.960784 0.870588 0.701961 1
0.960784 0.870588 0.701961 1
0.960784 0.870588 0.701961 1
0.960784 0.870588 0.701961 1
0.960784 0.870588 0.701961 1
0.960784 0.870588 0.701961 1
0.960784 0.870588 0.701961 1
0.960784 0.870588 0.701961 1
0.960784 0.870588 0.701961 1
0.960784 0.870588 0.701961 1
0.960784 0.870588 0.701961 1
0.960784 0.870588 0.701961 1
0.960784 0.870588 0.701961 1
0.960784 0.870588 0.701961 1
0.960784 0.870588 0.701961 1
0.960784 0.870588 0.701961 1
0.960784 0.870588 0.701961 1
0.960784 0.870588 0.701961 1
0.960784 0.870588 0.701961 1
0.960784 0.870588 0.701961 1
0.960784 0.870588 0.701961 1
0.960784 0.870588 0.701961 1
0.960784 0.870588 0.701961 1
0.960784 0.870588 0.701961 1
0.960784 0.870588 0.701961 1
0.960784 0.870588 0.701961 1
0.960784 0.870588 0.701961 1
0.960784 0.870588 0.701961 1
0.960784 0.870588 0.701961 1
0.960784 0.870588 0.701961 1
0.960784 0.870588 0.701961 1
0.960784 0.870588 0.701961 1
0.960784 0.870588 0.701961 1
0.960784 0.870588 0.701961 1
0.960784 0.870588 0.701961 1
0.960784 0.870588 0.701961 1
0.960784 0.870588 0.701961 1
0.960784 0.870588 0.701961 1
0.960784 0.870588 0.701961 1
0.960784 0.870588 0.701961 1
0.960784 0.870588 0.701961 1
0.960784 0.870588 0.701961 1
0.960784 0.870588 0.701961 1
0.960784 0.870588 0.701961 1
0.960784 0.870588 0.701961 1
0.960784 0.870588 0.701961 1
0.960784 0.870588 0.701961 1
0.960784 0.870588 0.701961 1
0.960784 0.870588 0.701961 1
0.960784 0.870588 0.701961 1
0.960784 0.870588 0.701961 1
0.960784 0.870588 0.701961 1
0.960784 0.870588 0.701961 1
0.960784 0.870588 0.701961 1
0.960784 0.870588 0.701961 1
0.960784 0.870588 0.701961 1
0.960784 0.870588 0.701961 1
0.960784 0.870588 0.701961 1
0.960784 0.870588 0.701961 1
0.960784 0.870588 0.701961 1
0.960784 0.870588 0.701961 1
0.960784 0.870588 0.701961 1
0.960784 0.870588 0.701961 1
0.960784 0.870588 0.701961 1
0.960784 0.870588 0.701961 1
0.960784 0.870588 0.701961 1
0.960784 0.870588 0.701961 1
0.960784 0.870588 0.701961 1
0.960784 0.870588 0.701961 1
0.960784 0.870588 0.701961 1
0.960784 0.870588 0.701961 1
0.960784 0.870588 0.701961 1
0.960784 0.870588 0.701961 1
0.960784 0.870588 0.701961 1
0.960784 0.870588 0.701961 1
0.960784 0.870588 0.701961 1
0.960784 0.870588 0.701961 1
0.960784 0.870588 0.701961 1
0.960784 0.870588 0.701961 1
0.960784 0.870588 0.701961 1
0.960784 0.870588 0.701961 1
0.960784 0.870588 0.701961 1
0.960784 0.870588 0.701961 1
0.960784 0.870588 0.701961 1
0.960784 0.870588 0.701961 1
0.960784 0.870588 0.701961 1
0.960784 0.870588 0.701961 1
0.960784 0.870588 0.701961 1
0.960784 0.870588 0.701961 1
0.960784 0.870588 0.701961 1
0.960784 0.870588 0.701961 1
0.960784 0.870588 0.701961 1
0.960784 0.870588 0.701961 1
0.960784 0.870588 0.701961 1
0.960784 0.870588 0.701961 1
0.960784 0.870588 0.701961 1
0.960784 0.870588 0.701961 1
0.960784 0.870588 0.701961 1
0.960784 0.870588 0.701961 1
0.960784 0.870588 0.701961 1
0.960784 0.870588 0.701961 1
0.960784 0.870588 0.701961 1
0.960784 0.870588 0.701961 1
0.960784 0.870588 0.701961 1
0.960784 0.870588 0.701961 1
0.960784 0.870588 0.701961 1
0.960784 0.870588 0.701961 1
0.960784 0.870588 0.701961 1
0.960784 0.870588 0.701961 1
0.960784 0.870588 0.701961 1
0.960784 0.870588 0.701961 1
0.960784 0.870588 0.701961 1
0.960784 0.870588 0.701961 1
0.960784 0.870588 0.701961 1
0.960784 0.870588 0.701961 1
0.960784 0.870588 0.701961 1
0.960784 0.870588 0.701961 1
0.960784 0.870588 0.701961 1
0.960784 0.870588 0.701961 1
0.960784 0.870588 0.701961 1
0.960784 0.870588 0.701961 1
0.960784 0.870588 0.701961 1
0.960784 0.870588 0.701961 1
0.960784 0.870588 0.701961 1
0.960784 0.870588 0.701961 1
0.960784 0.870588 0.701961 1
0.960784 0.870588 0.701961 1
0.960784 0.870588 0.701961 1
0.960784 0.870588 0.701961 1
0.960784 0.870588 0.701961 1
0.960784 0.870588 0.701961 1
0.960784 0.870588 0.701961 1
0.960784 0.870588 0.701961 1
0.960784 0.870588 0.701961 1
0.960784 0.870588 0.701961 1
0.960784 0.870588 0.701961 1
0.960784 0.870588 0.701961 1
0.960784 0.870588 0.701961 1
0.960784 0.870588 0.701961 1
0.960784 0.870588 0.701961 1
0.960784 0.870588 0.701961 1
0.960784 0.870588 0.701961 1
0.960784 0.870588 0.701961 1
0.960784 0.870588 0.701961 1
0.960784 0.870588 0.701961 1
0.960784 0.870588 0.701961 1
0.960784 0.870588 0.701961 1
0.960784 0.870588 0.701961 1
0.960784 0.870588 0.701961 1
0.960784 0.870588 0.701961 1
0.960784 0.870588 0.701961 1
0.960784 0.870588 0.701961 1
0.960784 0.870588 0.701961 1
0.960784 0.870588 0.701961 1
0.960784 0.870588 0.701961 1
0.960784 0.870588 0.701961 1
0.960784 0.870588 0.701961 1
0.960784 0.870588 0.701961 1
0.960784 0.870588 0.701961 1
0.960784 0.870588 0.701961 1
0.960784 0.870588 0.701961 1
0.960784 0.870588 0.701961 1
0.960784 0.870588 0.701961 1
0.960784 0.870588 0.701961 1
0.960784 0.870588 0.701961 1
0.960784 0.870588 0.701961 1
0.960784 0.870588 0.701961 1
0.960784 0.870588 0.701961 1
0.960784 0.870588 0.701961 1
0.960784 0.870588 0.701961 1
0.960784 0.870588 0.701961 1
0.960784 0.870588 0.701961 1
0.960784 0.870588 0.701961 1
0.960784 0.870588 0.701961 1
0.960784 0.870588 0.701961 1
0.960784 0.870588 0.701961 1
0.960784 0.870588 0.701961 1
0.960784 0.870588 0.701961 1
0.960784 0.870588 0.701961 1
0.960784 0.870588 0.701961 1
0.960784 0.870588 0.701961 1
0.960784 0.870588 0.701961 1
0.960784 0.870588 0.701961 1
0.960784 0.870588 0.701961 1
0.960784 0.870588 0.701961 1
0.960784 0.870588 0.701961 1
0.960784 0.870588 0.701961 1
0.960784 0.870588 0.701961 1
0.960784 0.870588 0.701961 1
0.960784 0.870588 0.701961 1
0.960784 0.870588 0.701961 1
0.960784 0.870588 0.701961 1
0.960784 0.870588 0.701961 1
0.960784 0.870588 0.701961 1
0.960784 0.870588 0.701961 1
0.960784 0.870588 0.701961 1
0.960784 0.870588 0.701961 1
0.960784 0.870588 0.701961 1
0.960784 0.870588 0.701961 1
0.960784 0.870588 0.701961 1
0.960784 0.870588 0.701961 1
0.960784 0.870588 0.701961 1
0.960784 0.870588 0.701961 1
0.960784 0.870588 0.701961 1
0.960784 0.870588 0.701961 1
0.960784 0.870588 0.701961 1
0.960784 0.870588 0.701961 1
0.960784 0.870588 0.701961 1
0.960784 0.870588 0.701961 1
0.960784 0.870588 0.701961 1
0.960784 0.870588 0.701961 1
0.960784 0.870588 0.701961 1
0.960784 0.870588 0.701961 1
0.960784 0.870588 0.701961 1
0.960784 0.870588 0.701961 1
0.960784 0.870588 0.701961 1
0.960784 0.870588 0.701961 1
0.960784 0.870588 0.701961 1
0.960784 0.870588 0.701961 1
0.960784 0.870588 0.701961 1
0.960784 0.870588 0.701961 1
0.960784 0.870588 0.701961 1
0.960784 0.870588 0.701961 1
0.960784 0.870588 0.701961 1
0.960784 0.870588 0.701961 1
0.960784 0.870588 0.701961 1
0.960784 0.870588 0.701961 1
0.960784 0.870588 0.701961 1
0.960784 0.870588 0.701961 1
0.960784 0.870588 0.701961 1
0.960784 0.870588 0.701961 1
0.960784 0.870588 0.701961 1
0.960784 0.870588 0.701961 1
0.960784 0.870588 0.701961 1
0.960784 0.870588 0.701961 1
0.960784 0.870588 0.701961 1
0.960784 0.870588 0.701961 1
0.960784 0.870588 0.701961 1
0.960784 0.870588 0.701961 1
0.960784 0.870588 0.701961 1
0.960784 0.870588 0.701961 1
0.960784 0.870588 0.701961 1
0.960784 0.870588 0.701961 1
0.960784 0.870588 0.701961 1
0.960784 0.870588 0.701961 1
0.960784 0.870588 0.701961 1
0.960784 0.870588 0.701961 1
0.960784 0.870588 0.701961 1
0.960784 0.870588 0.701961 1
0.960784 0.870588 0.701961 1
0.960784 0.870588 0.701961 1
0.960784 0.870588 0.701961 1
0.960784 0.870588 0.701961 1
0.960784 0.870588 0.701961 1
0.960784 0.870588 0.701961 1
0.960784 0.870588 0.701961 1
0.960784 0.870588 0.701961 1
0.960784 0.870588 0.701961 1
0.960784 0.870588 0.701961 1
0.960784 0.870588 0.701961 1
0.960784 0.870588 0.701961 1
0.960784 0.870588 0.701961 1
0.960784 0.870588 0.701961 1
0.960784 0.870588 0.701961 1
0.960784 0.870588 0.701961 1
0.960784 0.870588 0.701961 1
0.960784 0.870588 0.701961 1
0.960784 0.870588 0.701961 1
0.960784 0.870588 0.701961 1
0.960784 0.870588 0.701961 1
0.960784 0.870588 0.701961 1
0.960784 0.870588 0.701961 1
0.960784 0.870588 0.701961 1
0.960784 0.870588 0.701961 1
0.960784 0.870588 0.701961 1
0.960784 0.870588 0.701961 1
0.960784 0.870588 0.701961 1
0.960784 0.870588 0.701961 1
0.960784 0.870588 0.701961 1
0.960784 0.870588 0.701961 1
0.960784 0.870588 0.701961 1
0.960784 0.870588 0.701961 1
0.960784 0.870588 0.701961 1
0.960784 0.870588 0.701961 1
0.960784 0.870588 0.701961 1
0.960784 0.870588 0.701961 1
0.960784 0.870588 0.701961 1
0.960784 0.870588 0.701961 1
0.960784 0.870588 0.701961 1
0.960784 0.870588 0.701961 1
0.960784 0.870588 0.701961 1
0.960784 0.870588 0.701961 1
0.960784 0.870588 0.701961 1
0.960784 0.870588 0.701961 1
0.960784 0.870588 0.701961 1
0.960784 0.870588 0.701961 1
0.960784 0.870588 0.701961 1
0.960784 0.870588 0.701961 1
0.960784 0.870588 0.701961 1
0.960784 0.870588 0.701961 1
0.960784 0.870588 0.701961 1
0.960784 0.870588 0.701961 1
0.960784 0.870588 0.701961 1
0.960784 0.870588 0.701961 1
0.960784 0.870588 0.701961 1
0.960784 0.870588 0.701961 1
0.960784 0.870588 0.701961 1
0.960784 0.870588 0.701961 1
0.960784 0.870588 0.701961 1
0.960784 0.870588 0.701961 1
0.960784 0.870588 0.701961 1
0.960784 0.870588 0.701961 1
0.960784 0.870588 0.701961 1
0.960784 0.870588 0.701961 1
0.960784 0.870588 0.701961 1
0.960784 0.870588 0.701961 1
0.960784 0.870588 0.701961 1
0.960784 0.870588 0.701961 1
0.960784 0.870588 0.701961 1
0.960784 0.870588 0.701961 1
0.960784 0.870588 0.701961 1
0.960784 0.870588 0.701961 1
0.960784 0.870588 0.701961 1
0.960784 0.870588 0.701961 1
0.960784 0.870588 0.701961 1
0.960784 0.870588 0.701961 1
0.960784 0.870588 0.701961 1
0.960784 0.870588 0.701961 1
0.960784 0.870588 0.701961 1
0.960784 0.870588 0.701961 1
0.960784 0.870588 0.701961 1
0.960784 0.870588 0.701961 1
0.960784 0.870588 0.701961 1
0.960784 0.870588 0.701961 1
0.960784 0.870588 0.701961 1
0.960784 0.870588 0.701961 1
0.960784 0.870588 0.701961 1
0.960784 0.870588 0.701961 1
0.960784 0.870588 0.701961 1
0.960784 0.870588 0.701961 1
0.960784 0.870588 0.701961 1
0.960784 0.870588 0.701961 1
0.960784 0.870588 0.701961 1
0.960784 0.870588 0.701961 1
0.960784 0.870588 0.701961 1
0.960784 0.870588 0.701961 1
0.960784 0.870588 0.701961 1
0.960784 0.870588 0.701961 1
0.960784 0.870588 0.701961 1
0.960784 0.870588 0.701961 1
0.960784 0.870588 0.701961 1
0.960784 0.870588 0.701961 1
0.960784 0.870588 0.701961 1
0.960784 0.870588 0.701961 1
0.960784 0.870588 0.701961 1
0.960784 0.870588 0.701961 1
0.960784 0.870588 0.701961 1
0.960784 0.870588 0.701961 1
0.960784 0.870588 0.701961 1
0.960784 0.870588 0.701961 1
0.960784 0.870588 0.701961 1
0.960784 0.870588 0.701961 1
0.960784 0.870588 0.701961 1
0.960784 0.870588 0.701961 1
0.960784 0.870588 0.701961 1
0.960784 0.870588 0.701961 1
0.960784 0.870588 0.701961 1
0.960784 0.870588 0.701961 1
0.960784 0.870588 0.701961 1
0.960784 0.870588 0.701961 1
0.960784 0.870588 0.701961 1
0.960784 0.870588 0.701961 1
0.960784 0.870588 0.701961 1
0.960784 0.870588 0.701961 1
0.960784 0.870588 0.701961 1
0.960784 0.870588 0.701961 1
0.960784 0.870588 0.701961 1
0.960784 0.870588 0.701961 1
0.960784 0.870588 0.701961 1
0.960784 0.870588 0.701961 1
0.960784 0.870588 0.701961 1
0.960784 0.870588 0.701961 1
0.960784 0.870588 0.701961 1
0.960784 0.870588 0.701961 1
0.960784 0.870588 0.701961 1
0.960784 0.870588 0.701961 1
0.960784 0.870588 0.701961 1
0.960784 0.870588 0.701961 1
0.960784 0.870588 0.701961 1
0.960784 0.870588 0.701961 1
0.960784 0.870588 0.701961 1
0.960784 0.870588 0.701961 1
0.960784 0.870588 0.701961 1
0.960784 0.870588 0.701961 1
0.960784 0.870588 0.701961 1
0.960784 0.870588 0.701961 1
0.960784 0.870588 0.701961 1
0.960784 0.870588 0.701961 1
0.960784 0.870588 0.701961 1
0.960784 0.870588 0.701961 1
0.960784 0.870588 0.701961 1
0.960784 0.870588 0.701961 1
0.960784 0.870588 0.701961 1
0.960784 0.870588 0.701961 1
0.960784 0.870588 0.701961 1
0.960784 0.870588 0.701961 1
0.960784 0.870588 0.701961 1
0.960784 0.870588 0.701961 1
0.960784 0.870588 0.701961 1
0.960784 0.870588 0.701961 1
0.960784 0.870588 0.701961 1
0.960784 0.870588 0.701961 1
0.960784 0.870588 0.701961 1
0.960784 0.870588 0.701961 1
0.960784 0.870588 0.701961 1
0.960784 0.870588 0.701961 1
0.960784 0.870588 0.701961 1
0.960784 0.870588 0.701961 1
0.960784 0.870588 0.701961 1
0.960784 0.870588 0.701961 1
0.960784 0.870588 0.701961 1
0.960784 0.870588 0.701961 1
0.960784 0.870588 0.701961 1
0.960784 0.870588 0.701961 1
0.960784 0.870588 0.701961 1
0.960784 0.870588 0.701961 1
0.960784 0.870588 0.701961 1
0.960784 0.870588 0.701961 1
0.960784 0.870588 0.701961 1
0.960784 0.870588 0.701961 1
0.960784 0.870588 0.701961 1
0.960784 0.870588 0.701961 1
0.960784 0.870588 0.701961 1
0.960784 0.870588 0.701961 1
0.960784 0.870588 0.701961 1
0.960784 0.870588 0.701961 1
0.960784 0.870588 0.701961 1
0.960784 0.870588 0.701961 1
0.960784 0.870588 0.701961 1
0.960784 0.870588 0.701961 1
0.960784 0.870588 0.701961 1
0.960784 0.870588 0.701961 1
0.960784 0.870588 0.701961 1
0.960784 0.870588 0.701961 1
0.960784 0.870588 0.701961 1
0.960784 0.870588 0.701961 1
0.960784 0.870588 0.701961 1
0.960784 0.870588 0.701961 1
0.960784 0.870588 0.701961 1
0.960784 0.870588 0.701961 1
0.960784 0.870588 0.701961 1
0.960784 0.870588 0.701961 1
0.960784 0.870588 0.701961 1
0.960784 0.870588 0.701961 1
0.960784 0.870588 0.701961 1
0.960784 0.870588 0.701961 1
0.960784 0.870588 0.701961 1
0.960784 0.870588 0.701961 1
0.960784 0.870588 0.701961 1
0.960784 0.870588 0.701961 1
0.960784 0.870588 0.701961 1
0.960784 0.870588 0.701961 1
0.960784 0.870588 0.701961 1
0.960784 0.870588 0.701961 1
0.960784 0.870588 0.701961 1
0.960784 0.870588 0.701961 1
0.960784 0.870588 0.701961 1
0.960784 0.870588 0.701961 1
0.960784 0.870588 0.701961 1
0.960784 0.870588 0.701961 1
0.960784 0.870588 0.701961 1
0.960784 0.870588 0.701961 1
0.960784 0.870588 0.701961 1
0.960784 0.870588 0.701961 1
0.960784 0.870588 0.701961 1
0.960784 0.870588 0.701961 1
0.960784 0.870588 0.701961 1
0.960784 0.870588 0.701961 1
0.960784 0.870588 0.701961 1
0.960784 0.870588 0.701961 1
0.960784 0.870588 0.701961 1
0.960784 0.870588 0.701961 1
0.960784 0.870588 0.701961 1
0.960784 0.870588 0.701961 1
0.960784 0.870588 0.701961 1
0.960784 0.870588 0.701961 1
0.960784 0.870588 0.701961 1
0.960784 0.870588 0.701961 1
0.960784 0.870588 0.701961 1
0.960784 0.870588 0.701961 1
0.960784 0.870588 0.701961 1
0.960784 0.870588 0.701961 1
0.960784 0.870588 0.701961 1
0.960784 0.870588 0.701961 1
0.960784 0.870588 0.701961 1
0.960784 0.870588 0.701961 1
0.960784 0.870588 0.701961 1
0.960784 0.870588 0.701961 1
0.960784 0.870588 0.701961 1
0.960784 0.870588 0.701961 1
0.960784 0.870588 0.701961 1
0.960784 0.870588 0.701961 1
0.960784 0.870588 0.701961 1
0.960784 0.870588 0.701961 1
0.960784 0.870588 0.701961 1
0.960784 0.870588 0.701961 1
0.960784 0.870588 0.701961 1
0.960784 0.870588 0.701961 1
0.960784 0.870588 0.701961 1
0.960784 0.870588 0.701961 1
0.960784 0.870588 0.701961 1
0.960784 0.870588 0.701961 1
0.960784 0.870588 0.701961 1
0.960784 0.870588 0.701961 1
0.960784 0.870588 0.701961 1
0.960784 0.870588 0.701961 1
0.960784 0.870588 0.701961 1
0.960784 0.870588 0.701961 1
0.960784 0.870588 0.701961 1
0.960784 0.870588 0.701961 1
0.960784 0.870588 0.701961 1
0.960784 0.870588 0.701961 1
0.960784 0.870588 0.701961 1
0.960784 0.870588 0.701961 1
0.960784 0.870588 0.701961 1
0.960784 0.870588 0.701961 1
0.960784 0.870588 0.701961 1
0.960784 0.870588 0.701961 1
0.960784 0.870588 0.701961 1
0.960784 0.870588 0.701961 1
0.960784 0.870588 0.701961 1
0.960784 0.870588 0.701961 1
0.960784 0.870588 0.701961 1
0.960784 0.870588 0.701961 1
0.960784 0.870588 0.701961 1
0.960784 0.870588 0.701961 1
0.960784 0.870588 0.701961 1
0.960784 0.870588 0.701961 1
0.960784 0.870588 0.701961 1
0.960784 0.870588 0.701961 1
0.960784 0.870588 0.701961 1
0.960784 0.870588 0.701961 1
0.960784 0.870588 0.701961 1
0.960784 0.870588 0.701961 1
0.960784 0.870588 0.701961 1
0.960784 0.870588 0.701961 1
0.960784 0.870588 0.701961 1
0.960784 0.870588 0.701961 1
0.960784 0.870588 0.701961 1
0.960784 0.870588 0.701961 1
0.960784 0.870588 0.701961 1
0.960784 0.870588 0.701961 1
0.960784 0.870588 0.701961 1
0.960784 0.870588 0.701961 1
0.960784 0.870588 0.701961 1
0.960784 0.870588 0.701961 1
0.960784 0.870588 0.701961 1
0.960784 0.870588 0.701961 1
0.960784 0.870588 0.701961 1
0.960784 0.870588 0.701961 1
0.960784 0.870588 0.701961 1
0.960784 0.870588 0.701961 1
0.960784 0.870588 0.701961 1
0.960784 0.870588 0.701961 1
0.960784 0.870588 0.701961 1
0.960784 0.870588 0.701961 1
0.960784 0.870588 0.701961 1
0.960784 0.870588 0.701961 1
0.960784 0.870588 0.701961 1
0.960784 0.870588 0.701961 1
0.960784 0.870588 0.701961 1
0.960784 0.870588 0.701961 1
0.960784 0.870588 0.701961 1
0.960784 0.870588 0.701961 1
0.960784 0.870588 0.701961 1
0.960784 0.870588 0.701961 1
0.960784 0.870588 0.701961 1
0.960784 0.870588 0.701961 1
0.960784 0.870588 0.701961 1
0.960784 0.870588 0.701961 1
0.960784 0.870588 0.701961 1
0.960784 0.870588 0.701961 1
0.960784 0.870588 0.701961 1
0.960784 0.870588 0.701961 1
0.960784 0.870588 0.701961 1
0.960784 0.870588 0.701961 1
0.960784 0.870588 0.701961 1
0.960784 0.870588 0.701961 1
0.960784 0.870588 0.701961 1
0.960784 0.870588 0.701961 1
0.960784 0.870588 0.701961 1
0.960784 0.870588 0.701961 1
0.960784 0.870588 0.701961 1
0.960784 0.870588 0.701961 1
0.960784 0.870588 0.701961 1
0.960784 0.870588 0.701961 1
0.960784 0.870588 0.701961 1
0.960784 0.870588 0.701961 1
0.960784 0.870588 0.701961 1
0.960784 0.870588 0.701961 1
0.960784 0.870588 0.701961 1
0.960784 0.870588 0.701961 1
0.960784 0.870588 0.701961 1
0.960784 0.870588 0.701961 1
0.960784 0.870588 0.701961 1
0.960784 0.870588 0.701961 1
0.960784 0.870588 0.701961 1
0.960784 0.870588 0.701961 1
0.960784 0.870588 0.701961 1
0.960784 0.870588 0.701961 1
0.960784 0.870588 0.701961 1
0.960784 0.870588 0.701961 1
0.960784 0.870588 0.701961 1
0.960784 0.870588 0.701961 1
0.960784 0.870588 0.701961 1
0.960784 0.870588 0.701961 1
0.960784 0.870588 0.701961 1
0.960784 0.870588 0.701961 1
0.960784 0.870588 0.701961 1
0.960784 0.870588 0.701961 1
0.960784 0.870588 0.701961 1
0.960784 0.870588 0.701961 1
0.960784 0.870588 0.701961 1
0.960784 0.870588 0.701961 1
0.960784 0.870588 0.701961 1
0.960784 0.870588 0.701961 1
0.960784 0.870588 0.701961 1
0.960784 0.870588 0.701961 1
0.960784 0.870588 0.701961 1
0.960784 0.870588 0.701961 1
0.960784 0.870588 0.701961 1
0.960784 0.870588 0.701961 1
0.960784 0.870588 0.701961 1
0.960784 0.870588 0.701961 1
0.960784 0.870588 0.701961 1
0.960784 0.870588 0.701961 1
0.960784 0.870588 0.701961 1
0.960784 0.870588 0.701961 1
0.960784 0.870588 0.701961 1
0.960784 0.870588 0.701961 1
0.960784 0.870588 0.701961 1
0.960784 0.870588 0.701961 1
0.960784 0.870588 0.701961 1
0.960784 0.870588 0.701961 1
0.960784 0.870588 0.701961 1
0.960784 0.870588 0.701961 1
0.960784 0.870588 0.701961 1
0.960784 0.870588 0.701961 1
0.960784 0.870588 0.701961 1
0.960784 0.870588 0.701961 1
0.960784 0.870588 0.701961 1
0.960784 0.870588 0.701961 1
0.960784 0.870588 0.701961 1
0.960784 0.870588 0.701961 1
0.960784 0.870588 0.701961 1
0.960784 0.870588 0.701961 1
0.960784 0.870588 0.701961 1
0.960784 0.870588 0.701961 1
0.960784 0.870588 0.701961 1
0.960784 0.870588 0.701961 1
0.960784 0.870588 0.701961 1
0.960784 0.870588 0.701961 1
0.960784 0.870588 0.701961 1