# vtk DataFile Version 3.0
Gocad TSurf to VTK
ASCII
DATASET POLYDATA
POINTS 3710 float
21513043.063 4548877.551 -4820.003
21512872.719 4548900.824 -4520.764
21512733.391 4548763.031 -5000.000
21512847.969 4548899.289 -4500.000
21513145.516 4548863.551 -5000.000
21512666.031 4548864.637 -4500.000
21512860.891 4548902.441 -4500.000
21512851.672 4548903.699 -4483.815
21512809.797 4548910.637 -4418.652
21512799.156 4548912.398 -4402.092
21512709.453 4548927.258 -4262.529
21512616.438 4548939.465 -4131.775
21512243.500 4548905.602 -4000.000
21512519.719 4548952.758 -4000.000
21512133.250 4548773.672 -4500.000
21511957.594 4548836.297 -4000.000
21512023.000 4548641.746 -5000.000
21511990.297 4548739.020 -4500.000
21511728.266 4548711.438 -4500.000
21511783.625 4548744.660 -4363.985
21511663.656 4548672.664 -4658.737
21511524.750 4548589.301 -5000.000
21511823.453 4548767.891 -4269.488
21511831.672 4548772.680 -4250.000
21511894.969 4548809.152 -4102.021
21511891.922 4548829.383 -4000.000
21511891.109 4548834.676 -3973.306
21511917.766 4548852.434 -3899.075
21511926.406 4548858.191 -3875.000
21511945.875 4548871.160 -3820.801
21511947.000 4548872.289 -3816.731
21512001.250 4548926.867 -3619.804
21512308.828 4548983.781 -3703.694
21512352.953 4548975.684 -3772.804
21512198.969 4549000.008 -3500.000
21512034.234 4548960.074 -3500.000
21512113.578 4549012.617 -3341.687
21507536.000 4552836.000 -184.599
21507460.094 4552864.109 -455.569
21507457.531 4552839.703 -456.399
21507380.344 4552855.609 -727.785
21507532.156 4552799.391 -185.843
21507539.859 4552872.605 -183.354
21507462.672 4552888.512 -454.740
21507614.484 4552832.297 87.202
21507609.344 4552783.484 85.542
21507619.625 4552881.105 88.861
21507543.719 4552909.211 -182.110
21507624.766 4552929.914 90.520
21507547.594 4552945.820 -180.865
21507465.250 4552912.914 -453.910
21507629.922 4552978.723 92.181
21507551.438 4552982.426 -179.620
21507467.813 4552937.320 -453.080
21507635.063 4553027.531 93.840
21507555.297 4553019.035 -178.583
21507470.391 4552961.727 -452.389
21507640.203 4553076.344 95.223
21507559.156 4553055.641 -179.668
21507472.969 4552986.133 -453.112
21507645.344 4553125.152 93.776
21507563.016 4553092.250 -180.753
21507475.531 4553010.535 -453.835
21507650.500 4553173.961 92.330
21507566.875 4553128.855 -181.837
21507478.109 4553034.938 -454.558
21507655.641 4553222.770 90.883
21507570.734 4553165.461 -182.922
21507480.688 4553059.344 -455.282
21507660.781 4553271.578 89.437
21507574.594 4553202.070 -184.007
21507483.250 4553083.750 -456.005
21507665.922 4553320.391 87.990
21507578.453 4553238.676 -185.092
21507485.828 4553108.156 -456.728
21507671.078 4553369.199 86.544
21507582.313 4553275.281 -186.177
21507488.406 4553132.559 -457.451
21507676.219 4553418.008 85.097
21507587.953 4553310.344 -187.128
21507492.156 4553155.930 -458.085
21507683.750 4553464.754 83.830
21507609.609 4553609.227 -187.128
21507535.469 4553753.699 -458.085
21507691.297 4553511.496 82.563
21507615.281 4553644.281 -188.078
21507698.828 4553558.242 81.295
21507620.922 4553679.344 -189.029
21507539.250 4553777.070 -458.719
21507706.375 4553604.988 80.028
21507626.578 4553714.402 -189.979
21507543.016 4553800.445 -459.352
21507713.906 4553651.730 78.761
21507632.234 4553749.461 -190.930
21507546.781 4553823.816 -459.986
21507721.438 4553698.477 77.493
21507637.875 4553784.520 -191.880
21507550.563 4553847.188 -460.620
21507728.984 4553745.223 76.226
21507643.531 4553819.578 -192.831
21507554.313 4553870.563 -461.254
21507736.516 4553791.969 74.958
21507649.188 4553854.637 -193.781
21507558.094 4553893.934 -461.887
21507744.047 4553838.711 73.691
21507654.844 4553889.695 -194.732
21507561.859 4553917.305 -462.521
21507751.594 4553885.457 72.424
21507660.500 4553924.754 -195.682
21507565.625 4553940.680 -463.155
21507759.125 4553932.203 71.156
21507666.141 4553959.813 -196.633
21507569.406 4553964.051 -463.788
21507766.656 4553978.945 69.888
21507671.797 4553994.871 -197.584
21507573.156 4553987.422 -464.422
21507774.203 4554025.691 68.798
21507677.453 4554029.930 -198.402
21507576.938 4554010.797 -465.056
21507683.094 4554064.988 -198.214
21507584.469 4554057.539 -465.476
21507781.734 4554072.438 69.048
21507688.766 4554100.047 -198.027
21507588.250 4554080.914 -465.351
21507789.281 4554119.180 69.298
21507694.406 4554135.105 -197.839
21507592.000 4554104.285 -465.226
21507796.813 4554165.926 69.548
21507688.016 4554171.156 -197.905
21507587.750 4554128.320 -465.270
21507788.281 4554213.996 69.460
21507681.625 4554207.215 -197.971
21507583.484 4554152.359 -465.314
21507779.766 4554262.070 69.372
21507675.219 4554243.266 -198.037
21507579.219 4554176.391 -465.358
21507771.234 4554310.141 69.284
21507672.109 4554278.207 -198.460
21507577.141 4554199.688 -465.640
21507767.078 4554356.727 68.721
21507669.000 4554313.145 -199.157
21507575.063 4554222.977 -466.105
21507762.938 4554403.313 67.791
21507665.891 4554348.086 -199.854
21507573.000 4554246.273 -466.570
21507758.781 4554449.898 66.861
21507662.781 4554383.023 -200.552
21507570.922 4554269.563 -467.035
21507754.641 4554496.484 65.931
21507659.656 4554417.965 -201.249
21507568.844 4554292.859 -467.500
21507750.484 4554543.070 65.001
21507656.563 4554452.902 -201.947
21507566.781 4554316.148 -467.965
21507746.344 4554589.656 64.071
21507653.438 4554487.840 -202.644
21507564.688 4554339.441 -468.429
21507742.188 4554636.238 63.141
21507644.781 4554765.066 -202.644
21507547.375 4554893.891 -468.429
21507738.031 4554682.824 62.211
21507641.656 4554800.004 -203.342
21507733.891 4554729.410 61.281
21507638.563 4554834.945 -204.039
21507545.297 4554917.188 -468.894
21507729.734 4554775.996 60.351
21507635.438 4554869.883 -204.736
21507543.219 4554940.477 -469.359
21507725.594 4554822.582 59.421
21507632.344 4554904.824 -205.434
21507541.156 4554963.773 -469.824
21507721.438 4554869.168 58.492
21507629.219 4554939.762 -206.131
21507539.078 4554987.063 -470.289
21507719.094 4554918.707 57.499
21507627.469 4554976.918 -206.876
21507537.000 4555010.359 -470.754
21507716.766 4554968.242 56.507
21507625.719 4555014.070 -207.620
21507535.828 4555035.125 -471.250
21507714.422 4555017.781 55.514
21507623.953 4555051.223 -208.364
21507534.656 4555059.895 -471.747
21507712.094 4555067.320 54.522
21507622.219 4555088.375 -209.109
21507533.500 4555084.664 -472.243
21507709.750 4555116.855 53.530
21507620.453 4555125.527 -209.853
21507532.328 4555109.434 -472.739
21507707.422 4555166.395 52.537
21507618.703 4555162.684 -210.597
21507531.156 4555134.203 -473.235
21507616.953 4555199.836 -211.341
21507528.813 4555183.738 -474.228
21507705.078 4555215.930 51.545
21507615.188 4555236.988 -212.086
21507527.656 4555208.508 -474.724
21507702.734 4555265.469 50.552
21507613.438 4555274.141 -212.830
21507526.484 4555233.277 -475.220
21507700.406 4555315.008 49.560
21507611.688 4555311.293 -213.574
21507525.313 4555258.047 -475.716
21507698.063 4555364.543 48.568
21507609.938 4555348.449 -214.140
21507524.156 4555282.813 -476.094
21507695.734 4555414.082 47.813
21507608.188 4555385.602 -213.773
21507522.969 4555307.586 -475.849
21507693.391 4555463.621 48.303
21507595.188 4555519.883 -213.773
21507496.984 4555576.148 -475.849
21507691.063 4555513.156 48.793
21507593.438 4555557.035 -213.406
21507688.719 4555562.695 49.283
21507591.688 4555594.188 -213.038
21507495.813 4555600.914 -475.604
21507673.922 4555602.625 49.653
21507580.594 4555624.137 -212.760
21507494.656 4555625.684 -475.359
21507659.109 4555642.559 50.023
21507569.469 4555654.086 -212.483
21507487.250 4555645.648 -475.174
21507644.313 4555682.488 50.393
21507558.375 4555684.035 -212.205
21507479.844 4555665.617 -474.989
21507632.391 4555716.641 50.711
21507549.438 4555709.648 -211.966
21507472.438 4555685.578 -474.803
21507620.469 4555750.789 51.029
21507540.500 4555735.258 -211.728
21507466.484 4555702.656 -474.644
21507535.875 4555771.266 -211.377
21507457.438 4555743.734 -474.252
21507614.313 4555798.797 51.497
21507531.250 4555807.273 -211.027
21507454.359 4555767.742 -474.018
21507608.141 4555846.809 51.964
21507526.625 4555843.281 -210.676
21507451.281 4555791.742 -473.784
21507601.984 4555894.816 52.432
21507522.016 4555879.285 -210.326
21507448.203 4555815.750 -473.551
21507595.828 4555942.824 52.899
21507517.391 4555915.297 -209.975
21507445.125 4555839.754 -473.317
21507589.656 4555990.836 53.366
21507512.766 4555951.301 -209.625
21507442.031 4555863.758 -473.083
21507583.500 4556038.844 53.834
21507508.141 4555987.309 -209.274
21507438.953 4555887.766 -472.850
21507577.328 4556086.855 54.301
21507486.484 4556164.906 -209.274
21507395.625 4556242.961 -472.850
21507571.172 4556134.863 54.768
21507481.859 4556200.914 -208.924
21507565.016 4556182.871 55.236
21507477.250 4556236.918 -208.573
21507392.563 4556266.961 -472.616
21507558.844 4556230.883 55.583
21507472.625 4556272.930 -208.313
21507389.469 4556290.969 -472.382
21507552.688 4556278.891 55.453
21507468.000 4556308.934 -208.411
21507386.391 4556314.973 -472.209
21507557.156 4556320.922 55.438
21507471.344 4556340.457 -208.421
21507383.313 4556338.977 -472.274
21507561.625 4556362.949 55.424
21507474.703 4556371.977 -208.432
21507385.547 4556359.992 -472.281
21507478.438 4556408.410 -208.446
21507390.281 4556405.297 -472.297
21507566.609 4556411.527 55.405
21507482.188 4556444.844 -208.460
21507392.766 4556429.582 -472.307
21507571.594 4556460.102 55.387
21507485.922 4556481.273 -208.474
21507395.250 4556453.871 -472.316
21507576.578 4556508.680 55.368
21507489.656 4556517.711 -208.488
21507397.750 4556478.160 -472.325
21507581.563 4556557.258 55.350
21507515.656 4556626.000 -208.488
21507449.734 4556694.742 -472.325
21507586.547 4556605.836 55.331
21507519.391 4556662.434 -208.501
21507591.531 4556654.410 55.313
21507523.125 4556698.867 -208.515
21507452.219 4556719.031 -472.334
21507596.516 4556702.988 55.294
21507526.859 4556735.297 -208.529
21507454.719 4556743.320 -472.344
21507539.547 4556763.238 -208.441
[...]
POINT_DATA 3710
COLOR_SCALARS GocadColor 4
0.611765 0.243137 0.807843 1
0.611765 0.243137 0.807843 1
0.611765 0.243137 0.807843 1
0.611765 0.243137 0.807843 1
0.611765 0.243137 0.807843 1
0.611765 0.243137 0.807843 1
0.611765 0.243137 0.807843 1
0.611765 0.243137 0.807843 1
0.611765 0.243137 0.807843 1
0.611765 0.243137 0.807843 1
0.611765 0.243137 0.807843 1
0.611765 0.243137 0.807843 1
0.611765 0.243137 0.807843 1
0.611765 0.243137 0.807843 1
0.611765 0.243137 0.807843 1
0.611765 0.243137 0.807843 1
0.611765 0.243137 0.807843 1
0.611765 0.243137 0.807843 1
0.611765 0.243137 0.807843 1
0.611765 0.243137 0.807843 1
0.611765 0.243137 0.807843 1
0.611765 0.243137 0.807843 1
0.611765 0.243137 0.807843 1
0.611765 0.243137 0.807843 1
0.611765 0.243137 0.807843 1
0.611765 0.243137 0.807843 1
0.611765 0.243137 0.807843 1
0.611765 0.243137 0.807843 1
0.611765 0.243137 0.807843 1
0.611765 0.243137 0.807843 1
0.611765 0.243137 0.807843 1
0.611765 0.243137 0.807843 1
0.611765 0.243137 0.807843 1
0.611765 0.243137 0.807843 1
0.611765 0.243137 0.807843 1
0.611765 0.243137 0.807843 1
0.611765 0.243137 0.807843 1
0.611765 0.243137 0.807843 1
0.611765 0.243137 0.807843 1
0.611765 0.243137 0.807843 1
0.611765 0.243137 0.807843 1
0.611765 0.243137 0.807843 1
0.611765 0.243137 0.807843 1
0.611765 0.243137 0.807843 1
0.611765 0.243137 0.807843 1
0.611765 0.243137 0.807843 1
0.611765 0.243137 0.807843 1
0.611765 0.243137 0.807843 1
0.611765 0.243137 0.807843 1
0.611765 0.243137 0.807843 1
0.611765 0.243137 0.807843 1
0.611765 0.243137 0.807843 1
0.611765 0.243137 0.807843 1
0.611765 0.243137 0.807843 1
0.611765 0.243137 0.807843 1
0.611765 0.243137 0.807843 1
0.611765 0.243137 0.807843 1
0.611765 0.243137 0.807843 1
0.611765 0.243137 0.807843 1
0.611765 0.243137 0.807843 1
0.611765 0.243137 0.807843 1
0.611765 0.243137 0.807843 1
0.611765 0.243137 0.807843 1
0.611765 0.243137 0.807843 1
0.611765 0.243137 0.807843 1
0.611765 0.243137 0.807843 1
0.611765 0.243137 0.807843 1
0.611765 0.243137 0.807843 1
0.611765 0.243137 0.807843 1
0.611765 0.243137 0.807843 1
0.611765 0.243137 0.807843 1
0.611765 0.243137 0.807843 1
0.611765 0.243137 0.807843 1
0.611765 0.243137 0.807843 1
0.611765 0.243137 0.807843 1
0.611765 0.243137 0.807843 1
0.611765 0.243137 0.807843 1
0.611765 0.243137 0.807843 1
0.611765 0.243137 0.807843 1
0.611765 0.243137 0.807843 1
0.611765 0.243137 0.807843 1
0.611765 0.243137 0.807843 1
0.611765 0.243137 0.807843 1
0.611765 0.243137 0.807843 1
0.611765 0.243137 0.807843 1
0.611765 0.243137 0.807843 1
0.611765 0.243137 0.807843 1
0.611765 0.243137 0.807843 1
0.611765 0.243137 0.807843 1
0.611765 0.243137 0.807843 1
0.611765 0.243137 0.807843 1
0.611765 0.243137 0.807843 1
0.611765 0.243137 0.807843 1
0.611765 0.243137 0.807843 1
0.611765 0.243137 0.807843 1
0.611765 0.243137 0.807843 1
0.611765 0.243137 0.807843 1
0.611765 0.243137 0.807843 1
0.611765 0.243137 0.807843 1
0.611765 0.243137 0.807843 1
0.611765 0.243137 0.807843 1
0.611765 0.243137 0.807843 1
0.611765 0.243137 0.807843 1
0.611765 0.243137 0.807843 1
0.611765 0.243137 0.807843 1
0.611765 0.243137 0.807843 1
0.611765 0.243137 0.807843 1
0.611765 0.243137 0.807843 1
0.611765 0.243137 0.807843 1
0.611765 0.243137 0.807843 1
0.611765 0.243137 0.807843 1
0.611765 0.243137 0.807843 1
0.611765 0.243137 0.807843 1
0.611765 0.243137 0.807843 1
0.611765 0.243137 0.807843 1
0.611765 0.243137 0.807843 1
0.611765 0.243137 0.807843 1
0.611765 0.243137 0.807843 1
0.611765 0.243137 0.807843 1
0.611765 0.243137 0.807843 1
0.611765 0.243137 0.807843 1
0.611765 0.243137 0.807843 1
0.611765 0.243137 0.807843 1
0.611765 0.243137 0.807843 1
0.611765 0.243137 0.807843 1
0.611765 0.243137 0.807843 1
0.611765 0.243137 0.807843 1
0.611765 0.243137 0.807843 1
0.611765 0.243137 0.807843 1
0.611765 0.243137 0.807843 1
0.611765 0.243137 0.807843 1
0.611765 0.243137 0.807843 1
0.611765 0.243137 0.807843 1
0.611765 0.243137 0.807843 1
0.611765 0.243137 0.807843 1
0.611765 0.243137 0.807843 1
0.611765 0.243137 0.807843 1
0.611765 0.243137 0.807843 1
0.611765 0.243137 0.807843 1
0.611765 0.243137 0.807843 1
0.611765 0.243137 0.807843 1
0.611765 0.243137 0.807843 1
0.611765 0.243137 0.807843 1
0.611765 0.243137 0.807843 1
0.611765 0.243137 0.807843 1
0.611765 0.243137 0.807843 1
0.611765 0.243137 0.807843 1
0.611765 0.243137 0.807843 1
0.611765 0.243137 0.807843 1
0.611765 0.243137 0.807843 1
0.611765 0.243137 0.807843 1
0.611765 0.243137 0.807843 1
0.611765 0.243137 0.807843 1
0.611765 0.243137 0.807843 1
0.611765 0.243137 0.807843 1
0.611765 0.243137 0.807843 1
0.611765 0.243137 0.807843 1
0.611765 0.243137 0.807843 1
0.611765 0.243137 0.807843 1
0.611765 0.243137 0.807843 1
0.611765 0.243137 0.807843 1
0.611765 0.243137 0.807843 1
0.611765 0.243137 0.807843 1
0.611765 0.243137 0.807843 1
0.611765 0.243137 0.807843 1
0.611765 0.243137 0.807843 1
0.611765 0.243137 0.807843 1
0.611765 0.243137 0.807843 1
0.611765 0.243137 0.807843 1
0.611765 0.243137 0.807843 1
0.611765 0.243137 0.807843 1
0.611765 0.243137 0.807843 1
0.611765 0.243137 0.807843 1
0.611765 0.243137 0.807843 1
0.611765 0.243137 0.807843 1
0.611765 0.243137 0.807843 1
0.611765 0.243137 0.807843 1
0.611765 0.243137 0.807843 1
0.611765 0.243137 0.807843 1
0.611765 0.243137 0.807843 1
0.611765 0.243137 0.807843 1
0.611765 0.243137 0.807843 1
0.611765 0.243137 0.807843 1
0.611765 0.243137 0.807843 1
0.611765 0.243137 0.807843 1
0.611765 0.243137 0.807843 1
0.611765 0.243137 0.807843 1
0.611765 0.243137 0.807843 1
0.611765 0.243137 0.807843 1
0.611765 0.243137 0.807843 1
0.611765 0.243137 0.807843 1
0.611765 0.243137 0.807843 1
0.611765 0.243137 0.807843 1
0.611765 0.243137 0.807843 1
0.611765 0.243137 0.807843 1
0.611765 0.243137 0.807843 1
0.611765 0.243137 0.807843 1
0.611765 0.243137 0.807843 1
0.611765 0.243137 0.807843 1
0.611765 0.243137 0.807843 1
0.611765 0.243137 0.807843 1
0.611765 0.243137 0.807843 1
0.611765 0.243137 0.807843 1
0.611765 0.243137 0.807843 1
0.611765 0.243137 0.807843 1
0.611765 0.243137 0.807843 1
0.611765 0.243137 0.807843 1
0.611765 0.243137 0.807843 1
0.611765 0.243137 0.807843 1
0.611765 0.243137 0.807843 1
0.611765 0.243137 0.807843 1
0.611765 0.243137 0.807843 1
0.611765 0.243137 0.807843 1
0.611765 0.243137 0.807843 1
0.611765 0.243137 0.807843 1
0.611765 0.243137 0.807843 1
0.611765 0.243137 0.807843 1
0.611765 0.243137 0.807843 1
0.611765 0.243137 0.807843 1
0.611765 0.243137 0.807843 1
0.611765 0.243137 0.807843 1
0.611765 0.243137 0.807843 1
0.611765 0.243137 0.807843 1
0.611765 0.243137 0.807843 1
0.611765 0.243137 0.807843 1
0.611765 0.243137 0.807843 1
0.611765 0.243137 0.807843 1
0.611765 0.243137 0.807843 1
0.611765 0.243137 0.807843 1
0.611765 0.243137 0.807843 1
0.611765 0.243137 0.807843 1
0.611765 0.243137 0.807843 1
0.611765 0.243137 0.807843 1
0.611765 0.243137 0.807843 1
0.611765 0.243137 0.807843 1
0.611765 0.243137 0.807843 1
0.611765 0.243137 0.807843 1
0.611765 0.243137 0.807843 1
0.611765 0.243137 0.807843 1
0.611765 0.243137 0.807843 1
0.611765 0.243137 0.807843 1
0.611765 0.243137 0.807843 1
0.611765 0.243137 0.807843 1
0.611765 0.243137 0.807843 1
0.611765 0.243137 0.807843 1
0.611765 0.243137 0.807843 1
0.611765 0.243137 0.807843 1
0.611765 0.243137 0.807843 1
0.611765 0.243137 0.807843 1
0.611765 0.243137 0.807843 1
0.611765 0.243137 0.807843 1
0.611765 0.243137 0.807843 1
0.611765 0.243137 0.807843 1
0.611765 0.243137 0.807843 1
0.611765 0.243137 0.807843 1
0.611765 0.243137 0.807843 1
0.611765 0.243137 0.807843 1
0.611765 0.243137 0.807843 1
0.611765 0.243137 0.807843 1
0.611765 0.243137 0.807843 1
0.611765 0.243137 0.807843 1
0.611765 0.243137 0.807843 1
0.611765 0.243137 0.807843 1
0.611765 0.243137 0.807843 1
0.611765 0.243137 0.807843 1
0.611765 0.243137 0.807843 1
0.611765 0.243137 0.807843 1
0.611765 0.243137 0.807843 1
0.611765 0.243137 0.807843 1
0.611765 0.243137 0.807843 1
0.611765 0.243137 0.807843 1
0.611765 0.243137 0.807843 1
0.611765 0.243137 0.807843 1
0.611765 0.243137 0.807843 1
0.611765 0.243137 0.807843 1
0.611765 0.243137 0.807843 1
0.611765 0.243137 0.807843 1
0.611765 0.243137 0.807843 1
0.611765 0.243137 0.807843 1
0.611765 0.243137 0.807843 1
0.611765 0.243137 0.807843 1
0.611765 0.243137 0.807843 1
0.611765 0.243137 0.807843 1
0.611765 0.243137 0.807843 1
0.611765 0.243137 0.807843 1
0.611765 0.243137 0.807843 1
0.611765 0.243137 0.807843 1
0.611765 0.243137 0.807843 1
0.611765 0.243137 0.807843 1
0.611765 0.243137 0.807843 1
0.611765 0.243137 0.807843 1
0.611765 0.243137 0.807843 1
0.611765 0.243137 0.807843 1
0.611765 0.243137 0.807843 1
0.611765 0.243137 0.807843 1
0.611765 0.243137 0.807843 1
0.611765 0.243137 0.807843 1
0.611765 0.243137 0.807843 1
0.611765 0.243137 0.807843 1
0.611765 0.243137 0.807843 1
0.611765 0.243137 0.807843 1
0.611765 0.243137 0.807843 1
0.611765 0.243137 0.807843 1
0.611765 0.243137 0.807843 1
0.611765 0.243137 0.807843 1
0.611765 0.243137 0.807843 1
0.611765 0.243137 0.807843 1
0.611765 0.243137 0.807843 1
0.611765 0.243137 0.807843 1
0.611765 0.243137 0.807843 1
0.611765 0.243137 0.807843 1
0.611765 0.243137 0.807843 1
0.611765 0.243137 0.807843 1
0.611765 0.243137 0.807843 1
0.611765 0.243137 0.807843 1
0.611765 0.243137 0.807843 1
0.611765 0.243137 0.807843 1
0.611765 0.243137 0.807843 1
0.611765 0.243137 0.807843 1
0.611765 0.243137 0.807843 1
0.611765 0.243137 0.807843 1
0.611765 0.243137 0.807843 1
0.611765 0.243137 0.807843 1
0.611765 0.243137 0.807843 1
0.611765 0.243137 0.807843 1
0.611765 0.243137 0.807843 1
0.611765 0.243137 0.807843 1
0.611765 0.243137 0.807843 1
0.611765 0.243137 0.807843 1
0.611765 0.243137 0.807843 1
0.611765 0.243137 0.807843 1
0.611765 0.243137 0.807843 1
0.611765 0.243137 0.807843 1
0.611765 0.243137 0.807843 1
0.611765 0.243137 0.807843 1
0.611765 0.243137 0.807843 1
0.611765 0.243137 0.807843 1
0.611765 0.243137 0.807843 1
0.611765 0.243137 0.807843 1
0.611765 0.243137 0.807843 1
0.611765 0.243137 0.807843 1
0.611765 0.243137 0.807843 1
0.611765 0.243137 0.807843 1
0.611765 0.243137 0.807843 1
0.611765 0.243137 0.807843 1
0.611765 0.243137 0.807843 1
0.611765 0.243137 0.807843 1
0.611765 0.243137 0.807843 1
0.611765 0.243137 0.807843 1
0.611765 0.243137 0.807843 1
0.611765 0.243137 0.807843 1
0.611765 0.243137 0.807843 1
0.611765 0.243137 0.807843 1
0.611765 0.243137 0.807843 1
0.611765 0.243137 0.807843 1
0.611765 0.243137 0.807843 1
0.611765 0.243137 0.807843 1
0.611765 0.243137 0.807843 1
0.611765 0.243137 0.807843 1
0.611765 0.243137 0.807843 1
0.611765 0.243137 0.807843 1
0.611765 0.243137 0.807843 1
0.611765 0.243137 0.807843 1
0.611765 0.243137 0.807843 1
0.611765 0.243137 0.807843 1
0.611765 0.243137 0.807843 1
0.611765 0.243137 0.807843 1
0.611765 0.243137 0.807843 1
0.611765 0.243137 0.807843 1
0.611765 0.243137 0.807843 1
0.611765 0.243137 0.807843 1
0.611765 0.243137 0.807843 1
0.611765 0.243137 0.807843 1
0.611765 0.243137 0.807843 1
0.611765 0.243137 0.807843 1
0.611765 0.243137 0.807843 1
0.611765 0.243137 0.807843 1
0.611765 0.243137 0.807843 1
0.611765 0.243137 0.807843 1
0.611765 0.243137 0.807843 1
0.611765 0.243137 0.807843 1
0.611765 0.243137 0.807843 1
0.611765 0.243137 0.807843 1
0.611765 0.243137 0.807843 1
0.611765 0.243137 0.807843 1
0.611765 0.243137 0.807843 1
0.611765 0.243137 0.807843 1
0.611765 0.243137 0.807843 1
0.611765 0.243137 0.807843 1
0.611765 0.243137 0.807843 1
0.611765 0.243137 0.807843 1
0.611765 0.243137 0.807843 1
0.611765 0.243137 0.807843 1
0.611765 0.243137 0.807843 1
0.611765 0.243137 0.807843 1
0.611765 0.243137 0.807843 1
0.611765 0.243137 0.807843 1
0.611765 0.243137 0.807843 1
0.611765 0.243137 0.807843 1
0.611765 0.243137 0.807843 1
0.611765 0.243137 0.807843 1
0.611765 0.243137 0.807843 1
0.611765 0.243137 0.807843 1
0.611765 0.243137 0.807843 1
0.611765 0.243137 0.807843 1
0.611765 0.243137 0.807843 1
0.611765 0.243137 0.807843 1
0.611765 0.243137 0.807843 1
0.611765 0.243137 0.807843 1
0.611765 0.243137 0.807843 1
0.611765 0.243137 0.807843 1
0.611765 0.243137 0.807843 1
0.611765 0.243137 0.807843 1
0.611765 0.243137 0.807843 1
0.611765 0.243137 0.807843 1
0.611765 0.243137 0.807843 1
0.611765 0.243137 0.807843 1
0.611765 0.243137 0.807843 1
0.611765 0.243137 0.807843 1
0.611765 0.243137 0.807843 1
0.611765 0.243137 0.807843 1
0.611765 0.243137 0.807843 1
0.611765 0.243137 0.807843 1
0.611765 0.243137 0.807843 1
0.611765 0.243137 0.807843 1
0.611765 0.243137 0.807843 1
0.611765 0.243137 0.807843 1
0.611765 0.243137 0.807843 1
0.611765 0.243137 0.807843 1
0.611765 0.243137 0.807843 1
0.611765 0.243137 0.807843 1
0.611765 0.243137 0.807843 1
0.611765 0.243137 0.807843 1
0.611765 0.243137 0.807843 1
0.611765 0.243137 0.807843 1
0.611765 0.243137 0.807843 1
0.611765 0.243137 0.807843 1
0.611765 0.243137 0.807843 1
0.611765 0.243137 0.807843 1
0.611765 0.243137 0.807843 1
0.611765 0.243137 0.807843 1
0.611765 0.243137 0.807843 1
0.611765 0.243137 0.807843 1
0.611765 0.243137 0.807843 1
0.611765 0.243137 0.807843 1
0.611765 0.243137 0.807843 1
0.611765 0.243137 0.807843 1
0.611765 0.243137 0.807843 1
0.611765 0.243137 0.807843 1
0.611765 0.243137 0.807843 1
0.611765 0.243137 0.807843 1
0.611765 0.243137 0.807843 1
0.611765 0.243137 0.807843 1
0.611765 0.243137 0.807843 1
0.611765 0.243137 0.807843 1
0.611765 0.243137 0.807843 1
0.611765 0.243137 0.807843 1
0.611765 0.243137 0.807843 1
0.611765 0.243137 0.807843 1
0.611765 0.243137 0.807843 1
0.611765 0.243137 0.807843 1
0.611765 0.243137 0.807843 1
0.611765 0.243137 0.807843 1
0.611765 0.243137 0.807843 1
0.611765 0.243137 0.807843 1
0.611765 0.243137 0.807843 1
0.611765 0.243137 0.807843 1
0.611765 0.243137 0.807843 1
0.611765 0.243137 0.807843 1
0.611765 0.243137 0.807843 1
0.611765 0.243137 0.807843 1
0.611765 0.243137 0.807843 1
0.611765 0.243137 0.807843 1
0.611765 0.243137 0.807843 1
0.611765 0.243137 0.807843 1
0.611765 0.243137 0.807843 1
0.611765 0.243137 0.807843 1
0.611765 0.243137 0.807843 1
0.611765 0.243137 0.807843 1
0.611765 0.243137 0.807843 1
0.611765 0.243137 0.807843 1
0.611765 0.243137 0.807843 1
0.611765 0.243137 0.807843 1
0.611765 0.243137 0.807843 1
0.611765 0.243137 0.807843 1
0.611765 0.243137 0.807843 1
0.611765 0.243137 0.807843 1
0.611765 0.243137 0.807843 1
0.611765 0.243137 0.807843 1
0.611765 0.243137 0.807843 1
0.611765 0.243137 0.807843 1
0.611765 0.243137 0.807843 1
0.611765 0.243137 0.807843 1
0.611765 0.243137 0.807843 1
0.611765 0.243137 0.807843 1
0.611765 0.243137 0.807843 1
0.611765 0.243137 0.807843 1
0.611765 0.243137 0.807843 1
0.611765 0.243137 0.807843 1
0.611765 0.243137 0.807843 1
0.611765 0.243137 0.807843 1
0.611765 0.243137 0.807843 1
0.611765 0.243137 0.807843 1
0.611765 0.243137 0.807843 1
0.611765 0.243137 0.807843 1
0.611765 0.243137 0.807843 1
0.611765 0.243137 0.807843 1
0.611765 0.243137 0.807843 1
0.611765 0.243137 0.807843 1
0.611765 0.243137 0.807843 1
0.611765 0.243137 0.807843 1
0.611765 0.243137 0.807843 1
0.611765 0.243137 0.807843 1
0.611765 0.243137 0.807843 1
0.611765 0.243137 0.807843 1
0.611765 0.243137 0.807843 1
0.611765 0.243137 0.807843 1
0.611765 0.243137 0.807843 1
0.611765 0.243137 0.807843 1
0.611765 0.243137 0.807843 1
0.611765 0.243137 0.807843 1
0.611765 0.243137 0.807843 1
0.611765 0.243137 0.807843 1
0.611765 0.243137 0.807843 1
0.611765 0.243137 0.807843 1
0.611765 0.243137 0.807843 1
0.611765 0.243137 0.807843 1
0.611765 0.243137 0.807843 1
0.611765 0.243137 0.807843 1
0.611765 0.243137 0.807843 1
0.611765 0.243137 0.807843 1
0.611765 0.243137 0.807843 1
0.611765 0.243137 0.807843 1
0.611765 0.243137 0.807843 1
0.611765 0.243137 0.807843 1
0.611765 0.243137 0.807843 1
0.611765 0.243137 0.807843 1
0.611765 0.243137 0.807843 1
0.611765 0.243137 0.807843 1
0.611765 0.243137 0.807843 1
0.611765 0.243137 0.807843 1
0.611765 0.243137 0.807843 1
0.611765 0.243137 0.807843 1
0.611765 0.243137 0.807843 1
0.611765 0.243137 0.807843 1
0.611765 0.243137 0.807843 1
0.611765 0.243137 0.807843 1
0.611765 0.243137 0.807843 1
0.611765 0.243137 0.807843 1
0.611765 0.243137 0.807843 1
0.611765 0.243137 0.807843 1
0.611765 0.243137 0.807843 1
0.611765 0.243137 0.807843 1
0.611765 0.243137 0.807843 1
0.611765 0.243137 0.807843 1
0.611765 0.243137 0.807843 1
0.611765 0.243137 0.807843 1
0.611765 0.243137 0.807843 1
0.611765 0.243137 0.807843 1
0.611765 0.243137 0.807843 1
0.611765 0.243137 0.807843 1
0.611765 0.243137 0.807843 1
0.611765 0.243137 0.807843 1
0.611765 0.243137 0.807843 1
0.611765 0.243137 0.807843 1
0.611765 0.243137 0.807843 1
0.611765 0.243137 0.807843 1
0.611765 0.243137 0.807843 1
0.611765 0.243137 0.807843 1
0.611765 0.243137 0.807843 1
0.611765 0.243137 0.807843 1
0.611765 0.243137 0.807843 1
0.611765 0.243137 0.807843 1
0.611765 0.243137 0.807843 1
0.611765 0.243137 0.807843 1
0.611765 0.243137 0.807843 1
0.611765 0.243137 0.807843 1
0.611765 0.243137 0.807843 1
0.611765 0.243137 0.807843 1
0.611765 0.243137 0.807843 1
0.611765 0.243137 0.807843 1
0.611765 0.243137 0.807843 1
0.611765 0.243137 0.807843 1
0.611765 0.243137 0.807843 1
0.611765 0.243137 0.807843 1
0.611765 0.243137 0.807843 1
0.611765 0.243137 0.807843 1
0.611765 0.243137 0.807843 1
0.611765 0.243137 0.807843 1
0.611765 0.243137 0.807843 1
0.611765 0.243137 0.807843 1
0.611765 0.243137 0.807843 1
0.611765 0.243137 0.807843 1
0.611765 0.243137 0.807843 1
0.611765 0.243137 0.807843 1
0.611765 0.243137 0.807843 1
0.611765 0.243137 0.807843 1
0.611765 0.243137 0.807843 1
0.611765 0.243137 0.807843 1
0.611765 0.243137 0.807843 1
0.611765 0.243137 0.807843 1
0.611765 0.243137 0.807843 1
0.611765 0.243137 0.807843 1
0.611765 0.243137 0.807843 1
0.611765 0.243137 0.807843 1
0.611765 0.243137 0.807843 1
0.611765 0.243137 0.807843 1
0.611765 0.243137 0.807843 1
0.611765 0.243137 0.807843 1
0.611765 0.243137 0.807843 1
0.611765 0.243137 0.807843 1
0.611765 0.243137 0.807843 1
0.611765 0.243137 0.807843 1
0.611765 0.243137 0.807843 1
0.611765 0.243137 0.807843 1
0.611765 0.243137 0.807843 1
0.611765 0.243137 0.807843 1
0.611765 0.243137 0.807843 1
0.611765 0.243137 0.807843 1
0.611765 0.243137 0.807843 1
0.611765 0.243137 0.807843 1
0.611765 0.243137 0.807843 1
0.611765 0.243137 0.807843 1
0.611765 0.243137 0.807843 1
0.611765 0.243137 0.807843 1
0.611765 0.243137 0.807843 1
0.611765 0.243137 0.807843 1
0.611765 0.243137 0.807843 1
0.611765 0.243137 0.807843 1
0.611765 0.243137 0.807843 1
0.611765 0.243137 0.807843 1
0.611765 0.243137 0.807843 1
0.611765 0.243137 0.807843 1
0.611765 0.243137 0.807843 1
0.611765 0.243137 0.807843 1
0.611765 0.243137 0.807843 1
0.611765 0.243137 0.807843 1
0.611765 0.243137 0.807843 1
0.611765 0.243137 0.807843 1
0.611765 0.243137 0.807843 1
0.611765 0.243137 0.807843 1
0.611765 0.243137 0.807843 1
0.611765 0.243137 0.807843 1
0.611765 0.243137 0.807843 1
0.611765 0.243137 0.807843 1
0.611765 0.243137 0.807843 1
0.611765 0.243137 0.807843 1
0.611765 0.243137 0.807843 1
0.611765 0.243137 0.807843 1
0.611765 0.243137 0.807843 1
0.611765 0.243137 0.807843 1
0.611765 0.243137 0.807843 1
0.611765 0.243137 0.807843 1
0.611765 0.243137 0.807843 1
0.611765 0.243137 0.807843 1
0.611765 0.243137 0.807843 1
0.611765 0.243137 0.807843 1
0.611765 0.243137 0.807843 1
0.611765 0.243137 0.807843 1
0.611765 0.243137 0.807843 1
0.611765 0.243137 0.807843 1
0.611765 0.243137 0.807843 1
0.611765 0.243137 0.807843 1
0.611765 0.243137 0.807843 1
0.611765 0.243137 0.807843 1
0.611765 0.243137 0.807843 1
0.611765 0.243137 0.807843 1
0.611765 0.243137 0.807843 1
0.611765 0.243137 0.807843 1
0.611765 0.243137 0.807843 1
0.611765 0.243137 0.807843 1
0.611765 0.243137 0.807843 1
0.611765 0.243137 0.807843 1
0.611765 0.243137 0.807843 1
0.611765 0.243137 0.807843 1
0.611765 0.243137 0.807843 1
0.611765 0.243137 0.807843 1
0.611765 0.243137 0.807843 1
0.611765 0.243137 0.807843 1
0.611765 0.243137 0.807843 1
0.611765 0.243137 0.807843 1
0.611765 0.243137 0.807843 1
0.611765 0.243137 0.807843 1
0.611765 0.243137 0.807843 1
0.611765 0.243137 0.807843 1
0.611765 0.243137 0.807843 1
0.611765 0.243137 0.807843 1
0.611765 0.243137 0.807843 1