# vtk DataFile Version 3.0
Gocad TSurf to VTK
ASCII
DATASET POLYDATA
POINTS 688 float
21531386.531 4599329.758 -3000.000
21531422.828 4599392.273 -2500.000
21531424.844 4599364.039 -2500.000
21531463.156 4599398.320 -2000.000
21531491.406 4599170.445 -2500.000
21531289.734 4599684.680 -3000.000
21531350.234 4599658.469 -2500.000
21531313.938 4599374.125 -3500.000
21531354.266 4599271.273 -3500.000
21531241.344 4599640.313 -3500.000
21531241.344 4599418.484 -4000.000
21531215.125 4599704.844 -3500.000
21531192.938 4599595.953 -4000.000
21531245.375 4599727.031 -3500.000
21531201.000 4599769.375 -4000.000
21531271.594 4599743.164 -3500.000
21531253.438 4599801.641 -4000.000
21531354.266 4599733.078 -3000.000
21531319.984 4599779.461 -3500.000
21531398.625 4599694.766 -2500.000
21531410.734 4599632.250 -2000.000
21531354.266 4599725.016 -3000.000
21531398.625 4599688.719 -2500.000
21531319.984 4599773.414 -3500.000
21531418.797 4599773.414 -3000.000
21531368.375 4599809.711 -3500.000
21531447.031 4599725.016 -2500.000
21531443.000 4599652.422 -2000.000
21531463.156 4599735.094 -2500.000
21531475.266 4599676.617 -2000.000
21531566.016 4599795.594 -2500.000
21531576.094 4599737.109 -2000.000
21531555.938 4599854.078 -3000.000
21531594.250 4599809.711 -2500.000
21531410.734 4599829.875 -3500.000
21531513.594 4599890.375 -3500.000
21531402.656 4599886.344 -4000.000
21531535.766 4599912.563 -3500.000
21531471.234 4599926.672 -4000.000
21531685.000 4599950.875 -3000.000
21531632.563 4599985.156 -3500.000
21531691.047 4599882.313 -2500.000
21531747.516 4599950.875 -2500.000
21531697.094 4599813.750 -2000.000
21531810.031 4599950.875 -2000.000
21531632.563 4599765.344 -2000.000
21531703.141 4599745.180 -1500.000
21531670.875 4599720.984 -1500.000
21531586.188 4599678.633 -1500.000
21531709.188 4599676.617 -1000.000
21531935.063 4599950.875 -1000.000
21531872.547 4599950.875 -1500.000
21531762.484 4599691.813 -737.516
21531931.891 4599897.508 -737.516
21531755.813 4599681.367 -737.515
21531802.438 4599686.125 -475.031
21531749.125 4599670.922 -737.515
21531789.078 4599665.227 -475.030
21531742.453 4599660.477 -737.515
21531775.719 4599644.328 -475.030
21531735.781 4599650.031 -737.515
21531729.094 4599639.578 -737.515
21531762.359 4599623.438 -475.030
21531720.953 4599638.258 -737.515
21531732.719 4599599.898 -475.030
21531712.813 4599636.938 -737.516
21531716.438 4599597.250 -475.031
21531628.125 4599594.578 -737.516
21531659.969 4599569.016 -475.031
21531596.266 4599620.148 -1000.000
21531579.719 4599564.336 -737.516
21531551.906 4599658.469 -1500.000
21531531.734 4599579.820 -1000.000
21531507.531 4599696.781 -2000.000
21531503.500 4599628.219 -1500.000
21531487.375 4599616.117 -1500.000
21531487.375 4599618.133 -1500.000
21531443.000 4599656.453 -2000.000
21531471.234 4599606.031 -1500.000
21531495.438 4599517.305 -1500.000
21531459.125 4599454.789 -2000.000
21531501.484 4599432.602 -1500.000
21531523.656 4599368.070 -1500.000
21531539.797 4599466.883 -1000.000
21531507.531 4599269.258 -2000.000
21531626.500 4599011.125 -1500.000
21531576.094 4599031.297 -2000.000
21531525.688 4599051.469 -2500.000
21531646.672 4598932.484 -1500.000
21531676.922 4598990.961 -1000.000
21531616.438 4598874.000 -2000.000
21531719.281 4598678.391 -1500.000
21531586.188 4598815.516 -2500.000
21531664.844 4598704.609 -2000.000
21531475.266 4599071.633 -3000.000
21531555.938 4598757.039 -3000.000
21531420.813 4599077.680 -3500.000
21531443.000 4598990.969 -3500.000
21531322.000 4599212.797 -4000.000
21531366.375 4599083.734 -4000.000
21531289.734 4599154.313 -4500.000
21531168.734 4599462.852 -4500.000
21531257.469 4599095.828 -5000.000
21531311.922 4599089.781 -4500.000
21531096.141 4599507.219 -5000.000
21531144.531 4599551.586 -4500.000
21531065.891 4599745.180 -4500.000
21531140.500 4599725.016 -4000.000
21530991.281 4599765.344 -5000.000
21531112.281 4599854.078 -5000.000
21531156.641 4599811.727 -4500.000
21531217.141 4599918.609 -5000.000
21531235.281 4599860.125 -4500.000
21531251.422 4599872.227 -4500.000
21531285.703 4599825.844 -4000.000
21531251.422 4599870.211 -4500.000
21531267.563 4599882.313 -4500.000
21531285.703 4599821.813 -4000.000
21531386.531 4599999.273 -5000.000
21531394.594 4599942.813 -4500.000
21531317.969 4599846.016 -4000.000
21531428.875 4599962.977 -4500.000
21531389.141 4600000.000 -4987.991
21531387.250 4600000.000 -5000.000
21531465.906 4600000.000 -4500.000
21531505.609 4600000.000 -4247.562
21531515.594 4599971.047 -4000.000
21531519.828 4600000.000 -4175.092
21531554.203 4600000.000 -4000.000
21531572.063 4600000.000 -3909.064
21531609.859 4600000.000 -3716.500
21531645.922 4600000.000 -3500.000
21531654.078 4600000.000 -3451.076
21531712.625 4600000.000 -3000.000
21531751.359 4600000.000 -2690.315
21531773.266 4600000.000 -2515.016
21531775.156 4600000.000 -2500.000
21531805.938 4600000.000 -2253.753
21531837.656 4600000.000 -2000.000
21531852.594 4600000.000 -1880.630
21531867.516 4600000.000 -1761.259
21531890.688 4599983.141 -1500.000
21531902.109 4600000.000 -1500.000
21531934.016 4600000.000 -1259.149
21531969.734 4600000.000 -1000.000
21531979.203 4600000.000 -940.843
21532011.703 4600000.000 -737.511
21531985.688 4599963.156 -737.511
21532022.047 4600000.000 -672.781
21531977.844 4599953.953 -737.512
21532020.625 4599957.039 -475.024
21531969.984 4599944.758 -737.513
21532004.906 4599938.641 -475.026
21531962.125 4599935.555 -737.514
21531989.203 4599920.234 -475.028
21531954.281 4599926.359 -737.515
21531946.422 4599917.156 -737.516
21531973.500 4599901.836 -475.030
21531938.563 4599907.953 -737.516
21531957.781 4599883.438 -475.032
21531942.078 4599865.031 -475.032
21531928.719 4599844.141 -475.031
21531969.156 4599849.719 -212.548
21531945.594 4599822.117 -212.548
21531992.703 4599877.313 -212.545
21531980.516 4599816.000 49.936
21532011.922 4599852.797 49.940
21532016.281 4599904.914 -212.542
21532043.344 4599889.594 49.944
21532039.844 4599932.516 -212.539
21532074.766 4599926.398 49.948
21532063.391 4599960.125 -212.536
21532106.172 4599963.203 49.952
21532086.969 4599987.719 -212.533
21532036.328 4599975.438 -475.022
21532137.594 4600000.000 49.956
21532095.641 4600000.000 -212.533
21532066.422 4600000.000 -395.271
21532053.672 4600000.000 -475.022
21531949.094 4599779.195 49.936
21531925.547 4599790.773 -212.547
21531922.375 4599737.406 49.937
21531869.078 4599722.211 -212.547
21531815.781 4599707.016 -475.031
21531849.047 4599690.875 -212.546
21531829.031 4599659.531 -212.546
21531868.969 4599653.836 49.939
21531842.250 4599612.047 49.940
21531895.672 4599695.625 49.938
21531808.984 4599628.188 -212.545
21531815.531 4599570.266 49.941
21531788.938 4599596.852 -212.544
21531749.000 4599602.547 -475.029
21531768.922 4599565.516 -212.544
21531788.828 4599528.477 49.942
21531744.484 4599561.539 -212.545
21531756.250 4599523.180 49.940
21531723.672 4599517.883 49.937
21531720.047 4599557.563 -212.547
21531691.813 4599543.453 -212.547
21531675.688 4599533.367 -212.547
21531627.703 4599548.852 -475.031
21531631.734 4599492.383 -475.031
21531585.766 4599479.633 -737.516
21531588.766 4599468.117 -737.515
21531591.750 4599456.594 -737.513
21531637.719 4599469.344 -475.029
21531594.750 4599445.078 -737.512
21531643.719 4599446.313 -475.027
21531597.750 4599433.563 -737.511
21531649.688 4599423.266 -475.025
21531600.734 4599422.039 -737.510
21531655.688 4599400.234 -475.022
21531703.578 4599065.102 -737.510
21531730.250 4599139.234 -475.020
21531706.578 4599053.578 -737.509
21531736.219 4599116.203 -475.018
21531709.563 4599042.063 -737.508
21531742.219 4599093.156 -475.016
21531712.563 4599030.547 -737.507
21531748.203 4599070.125 -475.014
21531715.563 4599019.023 -737.506
21531754.188 4599047.094 -475.011
21531718.547 4599007.508 -737.505
21531760.188 4599024.047 -475.009
21531721.547 4598995.984 -737.503
21531724.531 4598984.469 -737.502
21531766.156 4599001.016 -475.007
21531727.531 4598972.953 -737.501
21531772.156 4598977.977 -475.005
21531730.531 4598961.430 -737.500
21531778.156 4598954.938 -475.002
21531803.141 4598707.344 -737.500
21531832.531 4598762.508 -475.000
21531773.734 4598652.172 -1000.000
21531806.125 4598695.820 -737.499
21531741.469 4598597.719 -1500.000
21531822.125 4598466.641 -1000.000
21531709.188 4598543.273 -2000.000
21531777.750 4598458.578 -1500.000
21531610.391 4598730.820 -2500.000
21531676.922 4598488.828 -2500.000
21531644.656 4598434.375 -3000.000
21531689.031 4598442.438 -2500.000
21531529.719 4598676.375 -3500.000
21531596.250 4598434.375 -3500.000
21531503.500 4598755.023 -3500.000
21531451.063 4598753.000 -4000.000
21531410.734 4598910.297 -4000.000
21531378.469 4598829.633 -4500.000
21531346.203 4598748.969 -5000.000
21531398.641 4598750.984 -4500.000
21531477.281 4598515.039 -4500.000
21531503.500 4598595.703 -4000.000
21531451.063 4598434.375 -5000.000
21531499.469 4598434.375 -4500.000
21531547.859 4598434.375 -4000.000
21531547.859 4598289.180 -4500.000
21531580.125 4598337.578 -4000.000
21531515.594 4598240.781 -5000.000
21531559.969 4598244.813 -4500.000
21531604.328 4598248.844 -4000.000
21531614.422 4598093.563 -4500.000
21531640.625 4598148.016 -4000.000
21531588.203 4598039.117 -5000.000
21531870.531 4598103.648 -5000.000
21531826.156 4598141.969 -4500.000
21531884.641 4598158.094 -4500.000
21531898.750 4598212.547 -4000.000
21532072.188 4598194.398 -4500.000
21532023.781 4598236.750 -4000.000
21532120.578 4598152.047 -5000.000
21532148.813 4598206.500 -4500.000
21532177.047 4598260.945 -4000.000
21532366.625 4598230.695 -4500.000
21532322.250 4598277.078 -4000.000
21532410.984 4598184.313 -5000.000
21532427.125 4598238.766 -4500.000
21532443.250 4598293.211 -4000.000
21532669.109 4598269.016 -4500.000
21532604.578 4598313.375 -4000.000
21532733.641 4598224.648 -5000.000
21532737.672 4598275.063 -4500.000
21532741.703 4598325.484 -4000.000
21532788.094 4598281.109 -4500.000
21533136.969 4598281.117 -5000.000
21533090.594 4598323.469 -4500.000
[...]
POINT_DATA 688
COLOR_SCALARS GocadColor 4
0.5 1 0.25 1
0.5 1 0.25 1
0.5 1 0.25 1
0.5 1 0.25 1
0.5 1 0.25 1
0.5 1 0.25 1
0.5 1 0.25 1
0.5 1 0.25 1
0.5 1 0.25 1
0.5 1 0.25 1
0.5 1 0.25 1
0.5 1 0.25 1
0.5 1 0.25 1
0.5 1 0.25 1
0.5 1 0.25 1
0.5 1 0.25 1
0.5 1 0.25 1
0.5 1 0.25 1
0.5 1 0.25 1
0.5 1 0.25 1
0.5 1 0.25 1
0.5 1 0.25 1
0.5 1 0.25 1
0.5 1 0.25 1
0.5 1 0.25 1
0.5 1 0.25 1
0.5 1 0.25 1
0.5 1 0.25 1
0.5 1 0.25 1
0.5 1 0.25 1
0.5 1 0.25 1
0.5 1 0.25 1
0.5 1 0.25 1
0.5 1 0.25 1
0.5 1 0.25 1
0.5 1 0.25 1
0.5 1 0.25 1
0.5 1 0.25 1
0.5 1 0.25 1
0.5 1 0.25 1
0.5 1 0.25 1
0.5 1 0.25 1
0.5 1 0.25 1
0.5 1 0.25 1
0.5 1 0.25 1
0.5 1 0.25 1
0.5 1 0.25 1
0.5 1 0.25 1
0.5 1 0.25 1
0.5 1 0.25 1
0.5 1 0.25 1
0.5 1 0.25 1
0.5 1 0.25 1
0.5 1 0.25 1
0.5 1 0.25 1
0.5 1 0.25 1
0.5 1 0.25 1
0.5 1 0.25 1
0.5 1 0.25 1
0.5 1 0.25 1
0.5 1 0.25 1
0.5 1 0.25 1
0.5 1 0.25 1
0.5 1 0.25 1
0.5 1 0.25 1
0.5 1 0.25 1
0.5 1 0.25 1
0.5 1 0.25 1
0.5 1 0.25 1
0.5 1 0.25 1
0.5 1 0.25 1
0.5 1 0.25 1
0.5 1 0.25 1
0.5 1 0.25 1
0.5 1 0.25 1
0.5 1 0.25 1
0.5 1 0.25 1
0.5 1 0.25 1
0.5 1 0.25 1
0.5 1 0.25 1
0.5 1 0.25 1
0.5 1 0.25 1
0.5 1 0.25 1
0.5 1 0.25 1
0.5 1 0.25 1
0.5 1 0.25 1
0.5 1 0.25 1
0.5 1 0.25 1
0.5 1 0.25 1
0.5 1 0.25 1
0.5 1 0.25 1
0.5 1 0.25 1
0.5 1 0.25 1
0.5 1 0.25 1
0.5 1 0.25 1
0.5 1 0.25 1
0.5 1 0.25 1
0.5 1 0.25 1
0.5 1 0.25 1
0.5 1 0.25 1
0.5 1 0.25 1
0.5 1 0.25 1
0.5 1 0.25 1
0.5 1 0.25 1
0.5 1 0.25 1
0.5 1 0.25 1
0.5 1 0.25 1
0.5 1 0.25 1
0.5 1 0.25 1
0.5 1 0.25 1
0.5 1 0.25 1
0.5 1 0.25 1
0.5 1 0.25 1
0.5 1 0.25 1
0.5 1 0.25 1
0.5 1 0.25 1
0.5 1 0.25 1
0.5 1 0.25 1
0.5 1 0.25 1
0.5 1 0.25 1
0.5 1 0.25 1
0.5 1 0.25 1
0.5 1 0.25 1
0.5 1 0.25 1
0.5 1 0.25 1
0.5 1 0.25 1
0.5 1 0.25 1
0.5 1 0.25 1
0.5 1 0.25 1
0.5 1 0.25 1
0.5 1 0.25 1
0.5 1 0.25 1
0.5 1 0.25 1
0.5 1 0.25 1
0.5 1 0.25 1
0.5 1 0.25 1
0.5 1 0.25 1
0.5 1 0.25 1
0.5 1 0.25 1
0.5 1 0.25 1
0.5 1 0.25 1
0.5 1 0.25 1
0.5 1 0.25 1
0.5 1 0.25 1
0.5 1 0.25 1
0.5 1 0.25 1
0.5 1 0.25 1
0.5 1 0.25 1
0.5 1 0.25 1
0.5 1 0.25 1
0.5 1 0.25 1
0.5 1 0.25 1
0.5 1 0.25 1
0.5 1 0.25 1
0.5 1 0.25 1
0.5 1 0.25 1
0.5 1 0.25 1
0.5 1 0.25 1
0.5 1 0.25 1
0.5 1 0.25 1
0.5 1 0.25 1
0.5 1 0.25 1
0.5 1 0.25 1
0.5 1 0.25 1
0.5 1 0.25 1
0.5 1 0.25 1
0.5 1 0.25 1
0.5 1 0.25 1
0.5 1 0.25 1
0.5 1 0.25 1
0.5 1 0.25 1
0.5 1 0.25 1
0.5 1 0.25 1
0.5 1 0.25 1
0.5 1 0.25 1
0.5 1 0.25 1
0.5 1 0.25 1
0.5 1 0.25 1
0.5 1 0.25 1
0.5 1 0.25 1
0.5 1 0.25 1
0.5 1 0.25 1
0.5 1 0.25 1
0.5 1 0.25 1
0.5 1 0.25 1
0.5 1 0.25 1
0.5 1 0.25 1
0.5 1 0.25 1
0.5 1 0.25 1
0.5 1 0.25 1
0.5 1 0.25 1
0.5 1 0.25 1
0.5 1 0.25 1
0.5 1 0.25 1
0.5 1 0.25 1
0.5 1 0.25 1
0.5 1 0.25 1
0.5 1 0.25 1
0.5 1 0.25 1
0.5 1 0.25 1
0.5 1 0.25 1
0.5 1 0.25 1
0.5 1 0.25 1
0.5 1 0.25 1
0.5 1 0.25 1
0.5 1 0.25 1
0.5 1 0.25 1
0.5 1 0.25 1
0.5 1 0.25 1
0.5 1 0.25 1
0.5 1 0.25 1
0.5 1 0.25 1
0.5 1 0.25 1
0.5 1 0.25 1
0.5 1 0.25 1
0.5 1 0.25 1
0.5 1 0.25 1
0.5 1 0.25 1
0.5 1 0.25 1
0.5 1 0.25 1
0.5 1 0.25 1
0.5 1 0.25 1
0.5 1 0.25 1
0.5 1 0.25 1
0.5 1 0.25 1
0.5 1 0.25 1
0.5 1 0.25 1
0.5 1 0.25 1
0.5 1 0.25 1
0.5 1 0.25 1
0.5 1 0.25 1
0.5 1 0.25 1
0.5 1 0.25 1
0.5 1 0.25 1
0.5 1 0.25 1
0.5 1 0.25 1
0.5 1 0.25 1
0.5 1 0.25 1
0.5 1 0.25 1
0.5 1 0.25 1
0.5 1 0.25 1
0.5 1 0.25 1
0.5 1 0.25 1
0.5 1 0.25 1
0.5 1 0.25 1
0.5 1 0.25 1
0.5 1 0.25 1
0.5 1 0.25 1
0.5 1 0.25 1
0.5 1 0.25 1
0.5 1 0.25 1
0.5 1 0.25 1
0.5 1 0.25 1
0.5 1 0.25 1
0.5 1 0.25 1
0.5 1 0.25 1
0.5 1 0.25 1
0.5 1 0.25 1
0.5 1 0.25 1
0.5 1 0.25 1
0.5 1 0.25 1
0.5 1 0.25 1
0.5 1 0.25 1
0.5 1 0.25 1
0.5 1 0.25 1
0.5 1 0.25 1
0.5 1 0.25 1
0.5 1 0.25 1
0.5 1 0.25 1
0.5 1 0.25 1
0.5 1 0.25 1
0.5 1 0.25 1
0.5 1 0.25 1
0.5 1 0.25 1
0.5 1 0.25 1
0.5 1 0.25 1
0.5 1 0.25 1
0.5 1 0.25 1
0.5 1 0.25 1
0.5 1 0.25 1
0.5 1 0.25 1
0.5 1 0.25 1
0.5 1 0.25 1
0.5 1 0.25 1
0.5 1 0.25 1
0.5 1 0.25 1
0.5 1 0.25 1
0.5 1 0.25 1
0.5 1 0.25 1
0.5 1 0.25 1
0.5 1 0.25 1
0.5 1 0.25 1
0.5 1 0.25 1
0.5 1 0.25 1
0.5 1 0.25 1
0.5 1 0.25 1
0.5 1 0.25 1
0.5 1 0.25 1
0.5 1 0.25 1
0.5 1 0.25 1
0.5 1 0.25 1
0.5 1 0.25 1
0.5 1 0.25 1
0.5 1 0.25 1
0.5 1 0.25 1
0.5 1 0.25 1
0.5 1 0.25 1
0.5 1 0.25 1
0.5 1 0.25 1
0.5 1 0.25 1
0.5 1 0.25 1
0.5 1 0.25 1
0.5 1 0.25 1
0.5 1 0.25 1
0.5 1 0.25 1
0.5 1 0.25 1
0.5 1 0.25 1
0.5 1 0.25 1
0.5 1 0.25 1
0.5 1 0.25 1
0.5 1 0.25 1
0.5 1 0.25 1
0.5 1 0.25 1
0.5 1 0.25 1
0.5 1 0.25 1
0.5 1 0.25 1
0.5 1 0.25 1
0.5 1 0.25 1
0.5 1 0.25 1
0.5 1 0.25 1
0.5 1 0.25 1
0.5 1 0.25 1
0.5 1 0.25 1
0.5 1 0.25 1
0.5 1 0.25 1
0.5 1 0.25 1
0.5 1 0.25 1
0.5 1 0.25 1
0.5 1 0.25 1
0.5 1 0.25 1
0.5 1 0.25 1
0.5 1 0.25 1
0.5 1 0.25 1
0.5 1 0.25 1
0.5 1 0.25 1
0.5 1 0.25 1
0.5 1 0.25 1
0.5 1 0.25 1
0.5 1 0.25 1
0.5 1 0.25 1
0.5 1 0.25 1
0.5 1 0.25 1
0.5 1 0.25 1
0.5 1 0.25 1
0.5 1 0.25 1
0.5 1 0.25 1
0.5 1 0.25 1
0.5 1 0.25 1
0.5 1 0.25 1
0.5 1 0.25 1
0.5 1 0.25 1
0.5 1 0.25 1
0.5 1 0.25 1
0.5 1 0.25 1
0.5 1 0.25 1
0.5 1 0.25 1
0.5 1 0.25 1
0.5 1 0.25 1
0.5 1 0.25 1
0.5 1 0.25 1
0.5 1 0.25 1
0.5 1 0.25 1
0.5 1 0.25 1
0.5 1 0.25 1
0.5 1 0.25 1
0.5 1 0.25 1
0.5 1 0.25 1
0.5 1 0.25 1
0.5 1 0.25 1
0.5 1 0.25 1
0.5 1 0.25 1
0.5 1 0.25 1
0.5 1 0.25 1
0.5 1 0.25 1
0.5 1 0.25 1
0.5 1 0.25 1
0.5 1 0.25 1
0.5 1 0.25 1
0.5 1 0.25 1
0.5 1 0.25 1
0.5 1 0.25 1
0.5 1 0.25 1
0.5 1 0.25 1
0.5 1 0.25 1
0.5 1 0.25 1
0.5 1 0.25 1
0.5 1 0.25 1
0.5 1 0.25 1
0.5 1 0.25 1
0.5 1 0.25 1
0.5 1 0.25 1
0.5 1 0.25 1
0.5 1 0.25 1
0.5 1 0.25 1
0.5 1 0.25 1
0.5 1 0.25 1
0.5 1 0.25 1
0.5 1 0.25 1
0.5 1 0.25 1
0.5 1 0.25 1
0.5 1 0.25 1
0.5 1 0.25 1
0.5 1 0.25 1
0.5 1 0.25 1
0.5 1 0.25 1
0.5 1 0.25 1
0.5 1 0.25 1
0.5 1 0.25 1
0.5 1 0.25 1
0.5 1 0.25 1
0.5 1 0.25 1
0.5 1 0.25 1
0.5 1 0.25 1
0.5 1 0.25 1
0.5 1 0.25 1
0.5 1 0.25 1
0.5 1 0.25 1
0.5 1 0.25 1
0.5 1 0.25 1
0.5 1 0.25 1
0.5 1 0.25 1
0.5 1 0.25 1
0.5 1 0.25 1
0.5 1 0.25 1
0.5 1 0.25 1
0.5 1 0.25 1
0.5 1 0.25 1
0.5 1 0.25 1
0.5 1 0.25 1
0.5 1 0.25 1
0.5 1 0.25 1
0.5 1 0.25 1
0.5 1 0.25 1
0.5 1 0.25 1
0.5 1 0.25 1
0.5 1 0.25 1
0.5 1 0.25 1
0.5 1 0.25 1
0.5 1 0.25 1
0.5 1 0.25 1
0.5 1 0.25 1
0.5 1 0.25 1
0.5 1 0.25 1
0.5 1 0.25 1
0.5 1 0.25 1
0.5 1 0.25 1
0.5 1 0.25 1
0.5 1 0.25 1
0.5 1 0.25 1
0.5 1 0.25 1
0.5 1 0.25 1
0.5 1 0.25 1
0.5 1 0.25 1
0.5 1 0.25 1
0.5 1 0.25 1
0.5 1 0.25 1
0.5 1 0.25 1
0.5 1 0.25 1
0.5 1 0.25 1
0.5 1 0.25 1
0.5 1 0.25 1
0.5 1 0.25 1
0.5 1 0.25 1
0.5 1 0.25 1
0.5 1 0.25 1
0.5 1 0.25 1
0.5 1 0.25 1
0.5 1 0.25 1
0.5 1 0.25 1
0.5 1 0.25 1
0.5 1 0.25 1
0.5 1 0.25 1
0.5 1 0.25 1
0.5 1 0.25 1
0.5 1 0.25 1
0.5 1 0.25 1
0.5 1 0.25 1
0.5 1 0.25 1
0.5 1 0.25 1
0.5 1 0.25 1
0.5 1 0.25 1
0.5 1 0.25 1
0.5 1 0.25 1
0.5 1 0.25 1
0.5 1 0.25 1
0.5 1 0.25 1
0.5 1 0.25 1
0.5 1 0.25 1
0.5 1 0.25 1
0.5 1 0.25 1
0.5 1 0.25 1
0.5 1 0.25 1
0.5 1 0.25 1
0.5 1 0.25 1
0.5 1 0.25 1
0.5 1 0.25 1
0.5 1 0.25 1
0.5 1 0.25 1
0.5 1 0.25 1
0.5 1 0.25 1
0.5 1 0.25 1
0.5 1 0.25 1
0.5 1 0.25 1
0.5 1 0.25 1
0.5 1 0.25 1
0.5 1 0.25 1
0.5 1 0.25 1
0.5 1 0.25 1
0.5 1 0.25 1
0.5 1 0.25 1
0.5 1 0.25 1
0.5 1 0.25 1
0.5 1 0.25 1
0.5 1 0.25 1
0.5 1 0.25 1
0.5 1 0.25 1
0.5 1 0.25 1
0.5 1 0.25 1
0.5 1 0.25 1
0.5 1 0.25 1
0.5 1 0.25 1
0.5 1 0.25 1
0.5 1 0.25 1
0.5 1 0.25 1
0.5 1 0.25 1
0.5 1 0.25 1
0.5 1 0.25 1
0.5 1 0.25 1
0.5 1 0.25 1
0.5 1 0.25 1
0.5 1 0.25 1
0.5 1 0.25 1
0.5 1 0.25 1
0.5 1 0.25 1
0.5 1 0.25 1
0.5 1 0.25 1
0.5 1 0.25 1
0.5 1 0.25 1
0.5 1 0.25 1
0.5 1 0.25 1
0.5 1 0.25 1
0.5 1 0.25 1
0.5 1 0.25 1
0.5 1 0.25 1
0.5 1 0.25 1
0.5 1 0.25 1
0.5 1 0.25 1
0.5 1 0.25 1
0.5 1 0.25 1
0.5 1 0.25 1
0.5 1 0.25 1
0.5 1 0.25 1
0.5 1 0.25 1
0.5 1 0.25 1
0.5 1 0.25 1
0.5 1 0.25 1
0.5 1 0.25 1
0.5 1 0.25 1
0.5 1 0.25 1
0.5 1 0.25 1
0.5 1 0.25 1
0.5 1 0.25 1
0.5 1 0.25 1
0.5 1 0.25 1
0.5 1 0.25 1
0.5 1 0.25 1
0.5 1 0.25 1
0.5 1 0.25 1
0.5 1 0.25 1
0.5 1 0.25 1
0.5 1 0.25 1
0.5 1 0.25 1
0.5 1 0.25 1
0.5 1 0.25 1
0.5 1 0.25 1
0.5 1 0.25 1
0.5 1 0.25 1
0.5 1 0.25 1
0.5 1 0.25 1
0.5 1 0.25 1
0.5 1 0.25 1
0.5 1 0.25 1
0.5 1 0.25 1
0.5 1 0.25 1
0.5 1 0.25 1
0.5 1 0.25 1
0.5 1 0.25 1
0.5 1 0.25 1
0.5 1 0.25 1
0.5 1 0.25 1
0.5 1 0.25 1
0.5 1 0.25 1
0.5 1 0.25 1
0.5 1 0.25 1
0.5 1 0.25 1
0.5 1 0.25 1
0.5 1 0.25 1
0.5 1 0.25 1
0.5 1 0.25 1
0.5 1 0.25 1
0.5 1 0.25 1
0.5 1 0.25 1
0.5 1 0.25 1
0.5 1 0.25 1
0.5 1 0.25 1
0.5 1 0.25 1
0.5 1 0.25 1
0.5 1 0.25 1
0.5 1 0.25 1
0.5 1 0.25 1
0.5 1 0.25 1
0.5 1 0.25 1
0.5 1 0.25 1
0.5 1 0.25 1
0.5 1 0.25 1
0.5 1 0.25 1
0.5 1 0.25 1
0.5 1 0.25 1
0.5 1 0.25 1
0.5 1 0.25 1
0.5 1 0.25 1
0.5 1 0.25 1
0.5 1 0.25 1
0.5 1 0.25 1
0.5 1 0.25 1
0.5 1 0.25 1
0.5 1 0.25 1
0.5 1 0.25 1
0.5 1 0.25 1
0.5 1 0.25 1
0.5 1 0.25 1
0.5 1 0.25 1
0.5 1 0.25 1
0.5 1 0.25 1
0.5 1 0.25 1
0.5 1 0.25 1
0.5 1 0.25 1
0.5 1 0.25 1
0.5 1 0.25 1
0.5 1 0.25 1
0.5 1 0.25 1
0.5 1 0.25 1
0.5 1 0.25 1
0.5 1 0.25 1
0.5 1 0.25 1
0.5 1 0.25 1
0.5 1 0.25 1
0.5 1 0.25 1
0.5 1 0.25 1
0.5 1 0.25 1
0.5 1 0.25 1
0.5 1 0.25 1
0.5 1 0.25 1
0.5 1 0.25 1
0.5 1 0.25 1
0.5 1 0.25 1
0.5 1 0.25 1
0.5 1 0.25 1
0.5 1 0.25 1
0.5 1 0.25 1
0.5 1 0.25 1
0.5 1 0.25 1
0.5 1 0.25 1
0.5 1 0.25 1
0.5 1 0.25 1
0.5 1 0.25 1
0.5 1 0.25 1
0.5 1 0.25 1
0.5 1 0.25 1
0.5 1 0.25 1
0.5 1 0.25 1
0.5 1 0.25 1
0.5 1 0.25 1
0.5 1 0.25 1
0.5 1 0.25 1
0.5 1 0.25 1
0.5 1 0.25 1
0.5 1 0.25 1

