# vtk DataFile Version 3.0
Gocad TSurf to VTK
ASCII
DATASET POLYDATA
POINTS 4286 float
21512472.313 4548896.684 -3500.000
21512212.391 4548973.918 -3330.798
21512159.516 4548994.629 -3336.626
21512156.000 4548996.004 -3337.013
21512519.984 4548865.133 -3391.048
21512534.125 4548860.277 -3393.547
21512560.328 4548851.281 -3398.181
21512999.719 4548703.617 -3500.000
21512901.625 4548723.949 -3379.669
21512705.625 4548890.789 -4000.000
21512519.719 4548952.758 -4000.000
21513308.375 4548655.344 -4000.000
21513357.719 4548598.074 -3771.499
21512709.453 4548927.258 -4262.529
21512616.438 4548939.465 -4131.775
21512745.906 4548921.219 -4319.244
21512799.156 4548912.398 -4402.092
21512809.797 4548910.637 -4418.652
21512851.672 4548903.699 -4483.815
21513617.031 4548607.070 -4500.000
21512860.313 4548902.520 -4498.986
21513715.578 4548490.023 -4027.095
21513838.219 4548453.000 -4114.682
21513677.641 4548501.480 -4000.000
21513513.828 4548550.938 -3882.997
21513508.547 4548552.535 -3879.223
21513502.641 4548554.320 -3875.000
21513864.578 4548457.996 -4214.148
21513883.609 4548439.297 -4147.100
21513864.125 4548462.965 -4243.907
21513861.750 4548489.016 -4399.895
21513855.297 4548507.789 -4500.000
21513852.750 4548515.207 -4539.553
21513838.766 4548555.871 -4756.375
21513832.766 4548573.328 -4849.476
21513043.063 4548877.551 -4820.003
21513102.375 4548869.445 -4924.218
21512872.719 4548900.824 -4520.764
21512860.891 4548902.441 -4500.000
21513145.516 4548863.551 -5000.000
21513658.359 4548654.832 -4941.977
21513514.406 4548717.074 -4983.551
21513829.484 4548581.324 -4895.892
21513493.594 4548726.031 -4989.268
21513491.453 4548726.957 -4989.858
21513476.891 4548733.219 -4993.854
21513454.516 4548742.848 -5000.000
21513043.203 4548685.500 -3500.000
21513029.609 4548689.281 -3488.267
21512950.125 4548711.375 -3419.653
21512924.422 4548718.039 -3398.458
21512352.953 4548975.684 -3772.804
21512308.828 4548983.781 -3703.694
21512352.953 4548975.688 -3772.820
21512276.188 4548988.602 -3643.170
21512198.969 4549000.008 -3500.000
21512179.984 4549002.813 -3464.799
21512113.578 4549012.617 -3341.687
21503626.813 4544935.293 -4000.000
21504161.500 4544830.512 -4500.000
21503662.359 4544816.383 -4500.000
21504093.438 4544697.477 -5000.000
21503268.938 4544982.383 -4000.000
21504455.594 4545038.887 -4000.000
21504099.844 4545054.203 -3500.000
21504712.438 4545113.047 -4500.000
21504728.719 4545349.680 -4000.000
21504545.500 4544848.160 -5000.000
21504828.031 4545074.191 -5000.000
21505054.063 4545413.234 -5000.000
21505089.156 4545579.230 -4500.000
21505185.922 4545526.246 -5000.000
21505188.063 4545663.992 -4500.000
21504907.656 4545707.555 -4000.000
21505637.969 4545507.410 -5000.000
21505748.406 4545626.320 -4500.000
21505651.656 4545764.063 -4000.000
21506127.703 4545469.742 -5000.000
21506115.719 4545598.066 -4500.000
21506504.422 4545526.246 -5000.000
21506511.266 4545687.535 -4500.000
21506518.109 4545848.824 -4000.000
21506617.422 4545488.574 -5000.000
21506881.125 4545130.695 -5000.000
21506939.766 4545211.934 -4500.000
21506772.375 4545698.137 -4000.000
21507220.172 4544923.504 -5000.000
21507504.844 4544943.523 -4500.000
21507139.688 4545236.664 -4000.000
21507540.375 4544810.488 -5000.000
21507766.406 4544603.297 -5000.000
21507923.938 4544566.813 -4500.000
21507817.766 4544897.617 -4000.000
21508218.469 4544038.227 -5000.000
21508262.984 4544143.008 -4500.000
21508081.469 4544530.324 -4000.000
21508632.844 4543548.496 -5000.000
21508818.625 4543526.137 -4500.000
21508477.031 4544021.758 -4000.000
21508990.734 4543115.277 -5000.000
21509087.047 4543201.223 -4500.000
21509004.406 4543503.777 -4000.000
21509567.344 4542805.672 -4500.000
21509654.250 4542910.453 -4000.000
21509480.453 4542700.891 -5000.000
21510127.719 4542513.719 -4500.000
21509908.531 4542769.188 -4000.000
21509989.016 4542418.355 -5000.000
21510480.625 4542155.000 -5000.000
21510496.688 4542155.000 -4974.623
21510517.219 4542155.000 -4942.229
21510523.266 4542301.816 -4500.000
21510266.406 4542609.082 -4000.000
21510611.031 4542155.000 -4670.837
21510685.891 4542155.000 -4500.000
21510880.656 4542155.000 -4075.790
21510912.438 4542155.000 -4000.000
21510530.109 4542467.814 -4000.000
21510961.297 4542155.000 -3897.798
21511026.688 4542257.096 -3500.000
21510405.094 4542704.445 -3500.000
21511126.141 4542155.000 -3500.000
21511268.969 4542352.459 -2750.000
21511358.172 4542155.000 -2980.821
21511448.953 4542155.000 -2750.000
21511553.828 4542155.000 -2578.144
21511749.281 4542253.572 -2000.000
21511033.531 4542950.492 -2000.000
21511714.781 4542155.000 -2261.663
21511777.719 4542155.000 -2100.640
21511813.406 4542155.000 -2009.307
21511817.047 4542155.000 -2000.000
21511794.422 4542381.215 -1460.991
21511108.125 4543038.762 -1456.436
21511908.781 4542155.000 -1627.933
21511944.422 4542155.000 -1458.758
21512040.281 4542212.922 -913.144
21511961.844 4542332.066 -917.630
21512057.203 4542155.000 -1000.000
21512062.672 4542155.000 -977.733
21512077.047 4542155.000 -912.662
21512137.813 4542155.000 -636.438
21512163.656 4542155.000 -532.758
21512203.531 4542155.000 -368.296
21512149.641 4542253.451 -372.010
21512108.875 4542312.381 -374.227
21512245.078 4542155.000 -206.179
21512310.266 4542214.123 172.132
21512283.094 4542253.410 170.654
21512284.922 4542155.000 -46.365
21512331.281 4542172.270 173.712
21512339.953 4542155.000 174.364
21512255.922 4542292.697 169.175
21512228.750 4542331.984 167.697
21512201.578 4542371.271 166.219
21512047.750 4542400.777 -377.553
21512174.406 4542410.559 164.740
21512147.234 4542449.846 163.262
21512006.984 4542459.707 -379.771
21512120.063 4542489.133 161.784
21512092.891 4542528.420 160.305
21511925.469 4542577.570 -382.466
21511809.719 4542544.922 -922.273
21512065.719 4542567.707 158.827
21512038.547 4542606.994 157.385
21512011.375 4542646.281 157.048
21511984.203 4542685.568 156.711
21511884.719 4542636.498 -382.972
21511957.031 4542724.855 156.375
21511929.859 4542764.141 156.038
21511864.344 4542665.965 -383.224
21511902.688 4542803.430 155.701
21511870.141 4542836.273 155.454
21511837.609 4542869.121 155.207
21511612.188 4542914.098 -383.780
21511321.672 4543024.766 -923.260
21511805.063 4542901.965 154.960
21511772.516 4542934.809 154.714
21511563.375 4542963.367 -384.150
21511739.984 4542967.656 154.467
21511707.438 4543000.500 154.220
21511674.891 4543033.344 153.973
21511642.359 4543066.191 153.727
21511465.750 4543061.898 -384.890
21511609.813 4543099.035 153.480
21511570.109 4543128.254 155.755
21511406.188 4543105.730 -380.871
21511242.250 4543083.203 -917.497
21511530.406 4543157.477 158.838
21511490.703 4543186.695 161.921
21511346.625 4543149.559 -376.246
21511450.984 4543215.914 165.005
21511411.281 4543245.133 168.088
21511371.578 4543274.355 171.171
21511187.031 4543234.719 -364.417
21511112.453 4543146.445 -907.981
21511331.875 4543303.574 174.254
21511285.031 4543316.516 177.516
21511238.203 4543329.461 180.777
21511191.375 4543342.402 184.037
21510975.188 4543360.055 -357.504
21511144.531 4543355.344 187.299
21511131.750 4543385.148 188.647
21511118.984 4543414.953 189.995
21510906.219 4543447.492 -351.508
21510831.391 4543305.156 -905.003
21511088.328 4543453.813 192.660
21511057.688 4543492.676 195.324
21511027.031 4543531.539 197.989
21510837.250 4543534.930 -345.512
21510996.375 4543570.398 200.654
21510965.719 4543609.258 203.319
21510935.063 4543648.121 205.984
21510904.422 4543686.984 208.648
21510766.156 4543608.336 -339.623
21510873.766 4543725.844 211.313
21510840.266 4543745.992 213.836
21510715.906 4543638.559 -335.840
21510595.094 4543508.594 -886.138
21510806.781 4543766.141 216.357
21510773.281 4543786.293 218.880
21510620.750 4543665.207 -329.208
21510739.781 4543806.441 221.403
21510693.078 4543814.133 224.563
21510646.391 4543821.824 227.723
21510397.359 4543751.027 -326.837
21510599.688 4543829.516 230.884
21510553.000 4543837.211 234.044
21510506.297 4543844.902 237.205
21510222.250 4543779.875 -313.176
21510124.984 4543684.078 -879.585
21510459.594 4543852.594 240.830
21510412.906 4543860.285 244.963
21510366.203 4543867.977 249.098
21510152.203 4543791.414 -305.865
21510101.641 4543687.926 -877.518
21510319.500 4543875.668 253.757
21510272.813 4543883.363 258.847
21510226.109 4543891.055 263.939
21510179.422 4543898.746 269.029
21510024.438 4543830.164 -291.717
21510132.719 4543906.438 274.121
21510102.453 4543935.027 277.711
21509861.328 4543990.770 -287.188
21510072.203 4543963.617 281.299
21510041.938 4543992.207 283.749
21509838.641 4544012.211 -286.913
21509650.453 4544017.922 -857.758
21510011.688 4544020.797 284.115
21509981.422 4544049.387 284.483
21509753.625 4544117.961 -288.488
21509953.719 4544086.855 283.661
21509926.016 4544124.324 282.840
21509898.328 4544161.797 282.016
21509712.063 4544174.164 -289.721
21509547.750 4544145.172 -859.611
21509870.625 4544199.266 281.194
21509842.922 4544236.734 280.372
21509815.219 4544274.203 279.550
21509776.031 4544303.887 280.778
21509603.125 4544269.051 -287.575
21509736.859 4544333.566 282.005
21509697.672 4544363.250 283.233
21509658.484 4544392.934 284.462
21509619.313 4544422.613 285.689
21509377.594 4544450.250 -284.714
21509584.797 4544456.820 267.296
21509583.156 4544458.457 266.417
21509588.328 4544460.980 285.132
21509547.641 4544485.555 287.048
21509316.563 4544487.113 -281.842
21509187.188 4544427.234 -855.519
21509506.969 4544510.133 288.961
21509466.281 4544534.707 290.877
21509425.609 4544559.285 292.791
21509225.047 4544542.414 -277.535
21509384.922 4544583.859 294.706
21509344.250 4544608.438 296.620
21509303.563 4544633.012 298.535
21509164.016 4544579.273 -274.662
21509262.875 4544657.586 300.451
21509222.203 4544682.164 302.364
21509011.281 4544724.039 -270.355
21508922.375 4544692.188 -848.818
21509181.516 4544706.738 304.280
21509140.844 4544731.316 306.194
21509100.156 4544755.891 308.109
21508954.859 4544768.469 -270.300
21509065.625 4544790.555 306.266
21509031.094 4544825.215 300.763
[...]
POINT_DATA 4286
COLOR_SCALARS GocadColor 4
0.875 0.875 0.875 1
0.875 0.875 0.875 1
0.875 0.875 0.875 1
0.875 0.875 0.875 1
0.875 0.875 0.875 1
0.875 0.875 0.875 1
0.875 0.875 0.875 1
0.875 0.875 0.875 1
0.875 0.875 0.875 1
0.875 0.875 0.875 1
0.875 0.875 0.875 1
0.875 0.875 0.875 1
0.875 0.875 0.875 1
0.875 0.875 0.875 1
0.875 0.875 0.875 1
0.875 0.875 0.875 1
0.875 0.875 0.875 1
0.875 0.875 0.875 1
0.875 0.875 0.875 1
0.875 0.875 0.875 1
0.875 0.875 0.875 1
0.875 0.875 0.875 1
0.875 0.875 0.875 1
0.875 0.875 0.875 1
0.875 0.875 0.875 1
0.875 0.875 0.875 1
0.875 0.875 0.875 1
0.875 0.875 0.875 1
0.875 0.875 0.875 1
0.875 0.875 0.875 1
0.875 0.875 0.875 1
0.875 0.875 0.875 1
0.875 0.875 0.875 1
0.875 0.875 0.875 1
0.875 0.875 0.875 1
0.875 0.875 0.875 1
0.875 0.875 0.875 1
0.875 0.875 0.875 1
0.875 0.875 0.875 1
0.875 0.875 0.875 1
0.875 0.875 0.875 1
0.875 0.875 0.875 1
0.875 0.875 0.875 1
0.875 0.875 0.875 1
0.875 0.875 0.875 1
0.875 0.875 0.875 1
0.875 0.875 0.875 1
0.875 0.875 0.875 1
0.875 0.875 0.875 1
0.875 0.875 0.875 1
0.875 0.875 0.875 1
0.875 0.875 0.875 1
0.875 0.875 0.875 1
0.875 0.875 0.875 1
0.875 0.875 0.875 1
0.875 0.875 0.875 1
0.875 0.875 0.875 1
0.875 0.875 0.875 1
0.875 0.875 0.875 1
0.875 0.875 0.875 1
0.875 0.875 0.875 1
0.875 0.875 0.875 1
0.875 0.875 0.875 1
0.875 0.875 0.875 1
0.875 0.875 0.875 1
0.875 0.875 0.875 1
0.875 0.875 0.875 1
0.875 0.875 0.875 1
0.875 0.875 0.875 1
0.875 0.875 0.875 1
0.875 0.875 0.875 1
0.875 0.875 0.875 1
0.875 0.875 0.875 1
0.875 0.875 0.875 1
0.875 0.875 0.875 1
0.875 0.875 0.875 1
0.875 0.875 0.875 1
0.875 0.875 0.875 1
0.875 0.875 0.875 1
0.875 0.875 0.875 1
0.875 0.875 0.875 1
0.875 0.875 0.875 1
0.875 0.875 0.875 1
0.875 0.875 0.875 1
0.875 0.875 0.875 1
0.875 0.875 0.875 1
0.875 0.875 0.875 1
0.875 0.875 0.875 1
0.875 0.875 0.875 1
0.875 0.875 0.875 1
0.875 0.875 0.875 1
0.875 0.875 0.875 1
0.875 0.875 0.875 1
0.875 0.875 0.875 1
0.875 0.875 0.875 1
0.875 0.875 0.875 1
0.875 0.875 0.875 1
0.875 0.875 0.875 1
0.875 0.875 0.875 1
0.875 0.875 0.875 1
0.875 0.875 0.875 1
0.875 0.875 0.875 1
0.875 0.875 0.875 1
0.875 0.875 0.875 1
0.875 0.875 0.875 1
0.875 0.875 0.875 1
0.875 0.875 0.875 1
0.875 0.875 0.875 1
0.875 0.875 0.875 1
0.875 0.875 0.875 1
0.875 0.875 0.875 1
0.875 0.875 0.875 1
0.875 0.875 0.875 1
0.875 0.875 0.875 1
0.875 0.875 0.875 1
0.875 0.875 0.875 1
0.875 0.875 0.875 1
0.875 0.875 0.875 1
0.875 0.875 0.875 1
0.875 0.875 0.875 1
0.875 0.875 0.875 1
0.875 0.875 0.875 1
0.875 0.875 0.875 1
0.875 0.875 0.875 1
0.875 0.875 0.875 1
0.875 0.875 0.875 1
0.875 0.875 0.875 1
0.875 0.875 0.875 1
0.875 0.875 0.875 1
0.875 0.875 0.875 1
0.875 0.875 0.875 1
0.875 0.875 0.875 1
0.875 0.875 0.875 1
0.875 0.875 0.875 1
0.875 0.875 0.875 1
0.875 0.875 0.875 1
0.875 0.875 0.875 1
0.875 0.875 0.875 1
0.875 0.875 0.875 1
0.875 0.875 0.875 1
0.875 0.875 0.875 1
0.875 0.875 0.875 1
0.875 0.875 0.875 1
0.875 0.875 0.875 1
0.875 0.875 0.875 1
0.875 0.875 0.875 1
0.875 0.875 0.875 1
0.875 0.875 0.875 1
0.875 0.875 0.875 1
0.875 0.875 0.875 1
0.875 0.875 0.875 1
0.875 0.875 0.875 1
0.875 0.875 0.875 1
0.875 0.875 0.875 1
0.875 0.875 0.875 1
0.875 0.875 0.875 1
0.875 0.875 0.875 1
0.875 0.875 0.875 1
0.875 0.875 0.875 1
0.875 0.875 0.875 1
0.875 0.875 0.875 1
0.875 0.875 0.875 1
0.875 0.875 0.875 1
0.875 0.875 0.875 1
0.875 0.875 0.875 1
0.875 0.875 0.875 1
0.875 0.875 0.875 1
0.875 0.875 0.875 1
0.875 0.875 0.875 1
0.875 0.875 0.875 1
0.875 0.875 0.875 1
0.875 0.875 0.875 1
0.875 0.875 0.875 1
0.875 0.875 0.875 1
0.875 0.875 0.875 1
0.875 0.875 0.875 1
0.875 0.875 0.875 1
0.875 0.875 0.875 1
0.875 0.875 0.875 1
0.875 0.875 0.875 1
0.875 0.875 0.875 1
0.875 0.875 0.875 1
0.875 0.875 0.875 1
0.875 0.875 0.875 1
0.875 0.875 0.875 1
0.875 0.875 0.875 1
0.875 0.875 0.875 1
0.875 0.875 0.875 1
0.875 0.875 0.875 1
0.875 0.875 0.875 1
0.875 0.875 0.875 1
0.875 0.875 0.875 1
0.875 0.875 0.875 1
0.875 0.875 0.875 1
0.875 0.875 0.875 1
0.875 0.875 0.875 1
0.875 0.875 0.875 1
0.875 0.875 0.875 1
0.875 0.875 0.875 1
0.875 0.875 0.875 1
0.875 0.875 0.875 1
0.875 0.875 0.875 1
0.875 0.875 0.875 1
0.875 0.875 0.875 1
0.875 0.875 0.875 1
0.875 0.875 0.875 1
0.875 0.875 0.875 1
0.875 0.875 0.875 1
0.875 0.875 0.875 1
0.875 0.875 0.875 1
0.875 0.875 0.875 1
0.875 0.875 0.875 1
0.875 0.875 0.875 1
0.875 0.875 0.875 1
0.875 0.875 0.875 1
0.875 0.875 0.875 1
0.875 0.875 0.875 1
0.875 0.875 0.875 1
0.875 0.875 0.875 1
0.875 0.875 0.875 1
0.875 0.875 0.875 1
0.875 0.875 0.875 1
0.875 0.875 0.875 1
0.875 0.875 0.875 1
0.875 0.875 0.875 1
0.875 0.875 0.875 1
0.875 0.875 0.875 1
0.875 0.875 0.875 1
0.875 0.875 0.875 1
0.875 0.875 0.875 1
0.875 0.875 0.875 1
0.875 0.875 0.875 1
0.875 0.875 0.875 1
0.875 0.875 0.875 1
0.875 0.875 0.875 1
0.875 0.875 0.875 1
0.875 0.875 0.875 1
0.875 0.875 0.875 1
0.875 0.875 0.875 1
0.875 0.875 0.875 1
0.875 0.875 0.875 1
0.875 0.875 0.875 1
0.875 0.875 0.875 1
0.875 0.875 0.875 1
0.875 0.875 0.875 1
0.875 0.875 0.875 1
0.875 0.875 0.875 1
0.875 0.875 0.875 1
0.875 0.875 0.875 1
0.875 0.875 0.875 1
0.875 0.875 0.875 1
0.875 0.875 0.875 1
0.875 0.875 0.875 1
0.875 0.875 0.875 1
0.875 0.875 0.875 1
0.875 0.875 0.875 1
0.875 0.875 0.875 1
0.875 0.875 0.875 1
0.875 0.875 0.875 1
0.875 0.875 0.875 1
0.875 0.875 0.875 1
0.875 0.875 0.875 1
0.875 0.875 0.875 1
0.875 0.875 0.875 1
0.875 0.875 0.875 1
0.875 0.875 0.875 1
0.875 0.875 0.875 1
0.875 0.875 0.875 1
0.875 0.875 0.875 1
0.875 0.875 0.875 1
0.875 0.875 0.875 1
0.875 0.875 0.875 1
0.875 0.875 0.875 1
0.875 0.875 0.875 1
0.875 0.875 0.875 1
0.875 0.875 0.875 1
0.875 0.875 0.875 1
0.875 0.875 0.875 1
0.875 0.875 0.875 1
0.875 0.875 0.875 1
0.875 0.875 0.875 1
0.875 0.875 0.875 1
0.875 0.875 0.875 1
0.875 0.875 0.875 1
0.875 0.875 0.875 1
0.875 0.875 0.875 1
0.875 0.875 0.875 1
0.875 0.875 0.875 1
0.875 0.875 0.875 1
0.875 0.875 0.875 1
0.875 0.875 0.875 1
0.875 0.875 0.875 1
0.875 0.875 0.875 1
0.875 0.875 0.875 1
0.875 0.875 0.875 1
0.875 0.875 0.875 1
0.875 0.875 0.875 1
0.875 0.875 0.875 1
0.875 0.875 0.875 1
0.875 0.875 0.875 1
0.875 0.875 0.875 1
0.875 0.875 0.875 1
0.875 0.875 0.875 1
0.875 0.875 0.875 1
0.875 0.875 0.875 1
0.875 0.875 0.875 1
0.875 0.875 0.875 1
0.875 0.875 0.875 1
0.875 0.875 0.875 1
0.875 0.875 0.875 1
0.875 0.875 0.875 1
0.875 0.875 0.875 1
0.875 0.875 0.875 1
0.875 0.875 0.875 1
0.875 0.875 0.875 1
0.875 0.875 0.875 1
0.875 0.875 0.875 1
0.875 0.875 0.875 1
0.875 0.875 0.875 1
0.875 0.875 0.875 1
0.875 0.875 0.875 1
0.875 0.875 0.875 1
0.875 0.875 0.875 1
0.875 0.875 0.875 1
0.875 0.875 0.875 1
0.875 0.875 0.875 1
0.875 0.875 0.875 1
0.875 0.875 0.875 1
0.875 0.875 0.875 1
0.875 0.875 0.875 1
0.875 0.875 0.875 1
0.875 0.875 0.875 1
0.875 0.875 0.875 1
0.875 0.875 0.875 1
0.875 0.875 0.875 1
0.875 0.875 0.875 1
0.875 0.875 0.875 1
0.875 0.875 0.875 1
0.875 0.875 0.875 1
0.875 0.875 0.875 1
0.875 0.875 0.875 1
0.875 0.875 0.875 1
0.875 0.875 0.875 1
0.875 0.875 0.875 1
0.875 0.875 0.875 1
0.875 0.875 0.875 1
0.875 0.875 0.875 1
0.875 0.875 0.875 1
0.875 0.875 0.875 1
0.875 0.875 0.875 1
0.875 0.875 0.875 1
0.875 0.875 0.875 1
0.875 0.875 0.875 1
0.875 0.875 0.875 1
0.875 0.875 0.875 1
0.875 0.875 0.875 1
0.875 0.875 0.875 1
0.875 0.875 0.875 1
0.875 0.875 0.875 1
0.875 0.875 0.875 1
0.875 0.875 0.875 1
0.875 0.875 0.875 1
0.875 0.875 0.875 1
0.875 0.875 0.875 1
0.875 0.875 0.875 1
0.875 0.875 0.875 1
0.875 0.875 0.875 1
0.875 0.875 0.875 1
0.875 0.875 0.875 1
0.875 0.875 0.875 1
0.875 0.875 0.875 1
0.875 0.875 0.875 1
0.875 0.875 0.875 1
0.875 0.875 0.875 1
0.875 0.875 0.875 1
0.875 0.875 0.875 1
0.875 0.875 0.875 1
0.875 0.875 0.875 1
0.875 0.875 0.875 1
0.875 0.875 0.875 1
0.875 0.875 0.875 1
0.875 0.875 0.875 1
0.875 0.875 0.875 1
0.875 0.875 0.875 1
0.875 0.875 0.875 1
0.875 0.875 0.875 1
0.875 0.875 0.875 1
0.875 0.875 0.875 1
0.875 0.875 0.875 1
0.875 0.875 0.875 1
0.875 0.875 0.875 1
0.875 0.875 0.875 1
0.875 0.875 0.875 1
0.875 0.875 0.875 1
0.875 0.875 0.875 1
0.875 0.875 0.875 1
0.875 0.875 0.875 1
0.875 0.875 0.875 1
0.875 0.875 0.875 1
0.875 0.875 0.875 1
0.875 0.875 0.875 1
0.875 0.875 0.875 1
0.875 0.875 0.875 1
0.875 0.875 0.875 1
0.875 0.875 0.875 1
0.875 0.875 0.875 1
0.875 0.875 0.875 1
0.875 0.875 0.875 1
0.875 0.875 0.875 1
0.875 0.875 0.875 1
0.875 0.875 0.875 1
0.875 0.875 0.875 1
0.875 0.875 0.875 1
0.875 0.875 0.875 1
0.875 0.875 0.875 1
0.875 0.875 0.875 1
0.875 0.875 0.875 1
0.875 0.875 0.875 1
0.875 0.875 0.875 1
0.875 0.875 0.875 1
0.875 0.875 0.875 1
0.875 0.875 0.875 1
0.875 0.875 0.875 1
0.875 0.875 0.875 1
0.875 0.875 0.875 1
0.875 0.875 0.875 1
0.875 0.875 0.875 1
0.875 0.875 0.875 1
0.875 0.875 0.875 1
0.875 0.875 0.875 1
0.875 0.875 0.875 1
0.875 0.875 0.875 1
0.875 0.875 0.875 1
0.875 0.875 0.875 1
0.875 0.875 0.875 1
0.875 0.875 0.875 1
0.875 0.875 0.875 1
0.875 0.875 0.875 1
0.875 0.875 0.875 1
0.875 0.875 0.875 1
0.875 0.875 0.875 1
0.875 0.875 0.875 1
0.875 0.875 0.875 1
0.875 0.875 0.875 1
0.875 0.875 0.875 1
0.875 0.875 0.875 1
0.875 0.875 0.875 1
0.875 0.875 0.875 1
0.875 0.875 0.875 1
0.875 0.875 0.875 1
0.875 0.875 0.875 1
0.875 0.875 0.875 1
0.875 0.875 0.875 1
0.875 0.875 0.875 1
0.875 0.875 0.875 1
0.875 0.875 0.875 1
0.875 0.875 0.875 1
0.875 0.875 0.875 1
0.875 0.875 0.875 1
0.875 0.875 0.875 1
0.875 0.875 0.875 1
0.875 0.875 0.875 1
0.875 0.875 0.875 1
0.875 0.875 0.875 1
0.875 0.875 0.875 1
0.875 0.875 0.875 1
0.875 0.875 0.875 1
0.875 0.875 0.875 1
0.875 0.875 0.875 1
0.875 0.875 0.875 1
0.875 0.875 0.875 1
0.875 0.875 0.875 1
0.875 0.875 0.875 1
0.875 0.875 0.875 1
0.875 0.875 0.875 1
0.875 0.875 0.875 1
0.875 0.875 0.875 1
0.875 0.875 0.875 1
0.875 0.875 0.875 1
0.875 0.875 0.875 1
0.875 0.875 0.875 1
0.875 0.875 0.875 1
0.875 0.875 0.875 1
0.875 0.875 0.875 1
0.875 0.875 0.875 1
0.875 0.875 0.875 1
0.875 0.875 0.875 1
0.875 0.875 0.875 1
0.875 0.875 0.875 1
0.875 0.875 0.875 1
0.875 0.875 0.875 1
0.875 0.875 0.875 1
0.875 0.875 0.875 1
0.875 0.875 0.875 1
0.875 0.875 0.875 1
0.875 0.875 0.875 1
0.875 0.875 0.875 1
0.875 0.875 0.875 1
0.875 0.875 0.875 1
0.875 0.875 0.875 1
0.875 0.875 0.875 1
0.875 0.875 0.875 1
0.875 0.875 0.875 1
0.875 0.875 0.875 1
0.875 0.875 0.875 1
0.875 0.875 0.875 1
0.875 0.875 0.875 1
0.875 0.875 0.875 1
0.875 0.875 0.875 1
0.875 0.875 0.875 1
0.875 0.875 0.875 1
0.875 0.875 0.875 1
0.875 0.875 0.875 1
0.875 0.875 0.875 1
0.875 0.875 0.875 1
0.875 0.875 0.875 1
0.875 0.875 0.875 1
0.875 0.875 0.875 1
0.875 0.875 0.875 1
0.875 0.875 0.875 1
0.875 0.875 0.875 1
0.875 0.875 0.875 1
0.875 0.875 0.875 1
0.875 0.875 0.875 1
0.875 0.875 0.875 1
0.875 0.875 0.875 1
0.875 0.875 0.875 1
0.875 0.875 0.875 1
0.875 0.875 0.875 1
0.875 0.875 0.875 1
0.875 0.875 0.875 1
0.875 0.875 0.875 1
0.875 0.875 0.875 1
0.875 0.875 0.875 1
0.875 0.875 0.875 1
0.875 0.875 0.875 1
0.875 0.875 0.875 1
0.875 0.875 0.875 1
0.875 0.875 0.875 1
0.875 0.875 0.875 1
0.875 0.875 0.875 1
0.875 0.875 0.875 1
0.875 0.875 0.875 1
0.875 0.875 0.875 1
0.875 0.875 0.875 1
0.875 0.875 0.875 1
0.875 0.875 0.875 1
0.875 0.875 0.875 1
0.875 0.875 0.875 1
0.875 0.875 0.875 1
0.875 0.875 0.875 1
0.875 0.875 0.875 1
0.875 0.875 0.875 1
0.875 0.875 0.875 1
0.875 0.875 0.875 1
0.875 0.875 0.875 1
0.875 0.875 0.875 1
0.875 0.875 0.875 1
0.875 0.875 0.875 1
0.875 0.875 0.875 1
0.875 0.875 0.875 1
0.875 0.875 0.875 1
0.875 0.875 0.875 1
0.875 0.875 0.875 1
0.875 0.875 0.875 1
0.875 0.875 0.875 1
0.875 0.875 0.875 1
0.875 0.875 0.875 1
0.875 0.875 0.875 1
0.875 0.875 0.875 1
0.875 0.875 0.875 1
0.875 0.875 0.875 1
0.875 0.875 0.875 1
0.875 0.875 0.875 1
0.875 0.875 0.875 1
0.875 0.875 0.875 1
0.875 0.875 0.875 1
0.875 0.875 0.875 1
0.875 0.875 0.875 1
0.875 0.875 0.875 1
0.875 0.875 0.875 1
0.875 0.875 0.875 1
0.875 0.875 0.875 1
0.875 0.875 0.875 1
0.875 0.875 0.875 1
0.875 0.875 0.875 1
0.875 0.875 0.875 1
0.875 0.875 0.875 1
0.875 0.875 0.875 1
0.875 0.875 0.875 1
0.875 0.875 0.875 1
0.875 0.875 0.875 1
0.875 0.875 0.875 1
0.875 0.875 0.875 1
0.875 0.875 0.875 1
0.875 0.875 0.875 1
0.875 0.875 0.875 1
0.875 0.875 0.875 1
0.875 0.875 0.875 1
0.875 0.875 0.875 1
0.875 0.875 0.875 1
0.875 0.875 0.875 1
0.875 0.875 0.875 1
0.875 0.875 0.875 1
0.875 0.875 0.875 1
0.875 0.875 0.875 1
0.875 0.875 0.875 1
0.875 0.875 0.875 1
0.875 0.875 0.875 1
0.875 0.875 0.875 1
0.875 0.875 0.875 1
0.875 0.875 0.875 1
0.875 0.875 0.875 1
0.875 0.875 0.875 1
0.875 0.875 0.875 1
0.875 0.875 0.875 1
0.875 0.875 0.875 1
0.875 0.875 0.875 1
0.875 0.875 0.875 1
0.875 0.875 0.875 1
0.875 0.875 0.875 1
0.875 0.875 0.875 1
0.875 0.875 0.875 1
0.875 0.875 0.875 1
0.875 0.875 0.875 1
0.875 0.875 0.875 1
0.875 0.875 0.875 1
0.875 0.875 0.875 1
0.875 0.875 0.875 1
0.875 0.875 0.875 1
0.875 0.875 0.875 1
0.875 0.875 0.875 1
0.875 0.875 0.875 1
0.875 0.875 0.875 1
0.875 0.875 0.875 1
0.875 0.875 0.875 1
0.875 0.875 0.875 1
0.875 0.875 0.875 1
0.875 0.875 0.875 1
0.875 0.875 0.875 1
0.875 0.875 0.875 1
0.875 0.875 0.875 1
0.875 0.875 0.875 1
0.875 0.875 0.875 1
0.875 0.875 0.875 1
0.875 0.875 0.875 1
0.875 0.875 0.875 1
0.875 0.875 0.875 1
0.875 0.875 0.875 1
0.875 0.875 0.875 1
0.875 0.875 0.875 1
0.875 0.875 0.875 1
0.875 0.875 0.875 1
0.875 0.875 0.875 1
0.875 0.875 0.875 1
0.875 0.875 0.875 1
0.875 0.875 0.875 1
0.875 0.875 0.875 1
0.875 0.875 0.875 1
0.875 0.875 0.875 1
0.875 0.875 0.875 1
0.875 0.875 0.875 1
0.875 0.875 0.875 1
0.875 0.875 0.875 1
0.875 0.875 0.875 1
0.875 0.875 0.875 1
0.875 0.875 0.875 1
0.875 0.875 0.875 1
0.875 0.875 0.875 1
0.875 0.875 0.875 1
0.875 0.875 0.875 1
0.875 0.875 0.875 1
0.875 0.875 0.875 1
0.875 0.875 0.875 1
0.875 0.875 0.875 1
0.875 0.875 0.875 1
0.875 0.875 0.875 1
0.875 0.875 0.875 1
0.875 0.875 0.875 1
0.875 0.875 0.875 1
0.875 0.875 0.875 1
0.875 0.875 0.875 1
0.875 0.875 0.875 1
0.875 0.875 0.875 1
0.875 0.875 0.875 1
0.875 0.875 0.875 1
0.875 0.875 0.875 1
0.875 0.875 0.875 1
0.875 0.875 0.875 1
0.875 0.875 0.875 1
0.875 0.875 0.875 1
0.875 0.875 0.875 1
0.875 0.875 0.875 1
0.875 0.875 0.875 1
0.875 0.875 0.875 1
0.875 0.875 0.875 1
0.875 0.875 0.875 1
0.875 0.875 0.875 1
0.875 0.875 0.875 1
0.875 0.875 0.875 1
0.875 0.875 0.875 1
0.875 0.875 0.875 1
0.875 0.875 0.875 1
0.875 0.875 0.875 1
0.875 0.875 0.875 1
0.875 0.875 0.875 1
0.875 0.875 0.875 1
0.875 0.875 0.875 1
0.875 0.875 0.875 1
0.875 0.875 0.875 1
0.875 0.875 0.875 1
0.875 0.875 0.875 1
0.875 0.875 0.875 1
0.875 0.875 0.875 1
0.875 0.875 0.875 1
0.875 0.875 0.875 1
0.875 0.875 0.875 1
0.875 0.875 0.875 1
0.875 0.875 0.875 1
0.875 0.875 0.875 1
0.875 0.875 0.875 1
0.875 0.875 0.875 1
0.875 0.875 0.875 1
0.875 0.875 0.875 1
0.875 0.875 0.875 1
0.875 0.875 0.875 1
0.875 0.875 0.875 1
0.875 0.875 0.875 1
0.875 0.875 0.875 1
0.875 0.875 0.875 1
0.875 0.875 0.875 1
0.875 0.875 0.875 1
0.875 0.875 0.875 1
0.875 0.875 0.875 1
0.875 0.875 0.875 1
0.875 0.875 0.875 1
0.875 0.875 0.875 1
0.875 0.875 0.875 1
0.875 0.875 0.875 1
0.875 0.875 0.875 1
0.875 0.875 0.875 1
0.875 0.875 0.875 1
0.875 0.875 0.875 1
0.875 0.875 0.875 1
0.875 0.875 0.875 1
0.875 0.875 0.875 1
0.875 0.875 0.875 1
0.875 0.875 0.875 1
0.875 0.875 0.875 1
0.875 0.875 0.875 1
0.875 0.875 0.875 1
0.875 0.875 0.875 1
0.875 0.875 0.875 1
0.875 0.875 0.875 1
0.875 0.875 0.875 1
0.875 0.875 0.875 1
0.875 0.875 0.875 1
0.875 0.875 0.875 1
0.875 0.875 0.875 1
0.875 0.875 0.875 1
0.875 0.875 0.875 1
0.875 0.875 0.875 1
0.875 0.875 0.875 1
0.875 0.875 0.875 1
0.875 0.875 0.875 1
0.875 0.875 0.875 1
0.875 0.875 0.875 1
0.875 0.875 0.875 1
0.875 0.875 0.875 1
0.875 0.875 0.875 1
0.875 0.875 0.875 1
0.875 0.875 0.875 1
0.875 0.875 0.875 1
0.875 0.875 0.875 1
0.875 0.875 0.875 1
0.875 0.875 0.875 1
0.875 0.875 0.875 1
0.875 0.875 0.875 1
0.875 0.875 0.875 1
0.875 0.875 0.875 1
0.875 0.875 0.875 1
0.875 0.875 0.875 1
0.875 0.875 0.875 1
0.875 0.875 0.875 1
0.875 0.875 0.875 1
0.875 0.875 0.875 1
0.875 0.875 0.875 1
0.875 0.875 0.875 1
0.875 0.875 0.875 1
0.875 0.875 0.875 1
0.875 0.875 0.875 1
0.875 0.875 0.875 1
0.875 0.875 0.875 1
0.875 0.875 0.875 1
0.875 0.875 0.875 1
0.875 0.875 0.875 1
0.875 0.875 0.875 1
0.875 0.875 0.875 1
0.875 0.875 0.875 1
0.875 0.875 0.875 1
0.875 0.875 0.875 1
0.875 0.875 0.875 1
0.875 0.875 0.875 1
0.875 0.875 0.875 1
0.875 0.875 0.875 1
0.875 0.875 0.875 1
0.875 0.875 0.875 1
0.875 0.875 0.875 1
0.875 0.875 0.875 1
0.875 0.875 0.875 1
0.875 0.875 0.875 1
0.875 0.875 0.875 1
0.875 0.875 0.875 1
0.875 0.875 0.875 1
0.875 0.875 0.875 1
0.875 0.875 0.875 1
0.875 0.875 0.875 1
0.875 0.875 0.875 1
0.875 0.875 0.875 1
0.875 0.875 0.875 1
0.875 0.875 0.875 1
0.875 0.875 0.875 1
0.875 0.875 0.875 1
0.875 0.875 0.875 1
0.875 0.875 0.875 1
0.875 0.875 0.875 1
0.875 0.875 0.875 1
0.875 0.875 0.875 1
0.875 0.875 0.875 1
0.875 0.875 0.875 1
0.875 0.875 0.875 1
0.875 0.875 0.875 1
0.875 0.875 0.875 1
0.875 0.875 0.875 1
0.875 0.875 0.875 1
0.875 0.875 0.875 1
0.875 0.875 0.875 1
0.875 0.875 0.875 1
0.875 0.875 0.875 1
0.875 0.875 0.875 1
0.875 0.875 0.875 1
0.875 0.875 0.875 1
0.875 0.875 0.875 1
0.875 0.875 0.875 1
0.875 0.875 0.875 1
0.875 0.875 0.875 1
0.875 0.875 0.875 1
0.875 0.875 0.875 1
0.875 0.875 0.875 1
0.875 0.875 0.875 1
0.875 0.875 0.875 1
0.875 0.875 0.875 1
0.875 0.875 0.875 1
0.875 0.875 0.875 1
0.875 0.875 0.875 1
0.875 0.875 0.875 1
0.875 0.875 0.875 1
0.875 0.875 0.875 1
0.875 0.875 0.875 1
0.875 0.875 0.875 1
0.875 0.875 0.875 1
0.875 0.875 0.875 1
0.875 0.875 0.875 1
0.875 0.875 0.875 1
0.875 0.875 0.875 1
0.875 0.875 0.875 1
0.875 0.875 0.875 1
0.875 0.875 0.875 1
0.875 0.875 0.875 1
0.875 0.875 0.875 1
0.875 0.875 0.875 1
0.875 0.875 0.875 1
0.875 0.875 0.875 1
0.875 0.875 0.875 1
0.875 0.875 0.875 1
0.875 0.875 0.875 1
0.875 0.875 0.875 1
0.875 0.875 0.875 1
0.875 0.875 0.875 1
0.875 0.875 0.875 1
0.875 0.875 0.875 1
0.875 0.875 0.875 1
0.875 0.875 0.875 1
0.875 0.875 0.875 1
0.875 0.875 0.875 1
0.875 0.875 0.875 1
0.875 0.875 0.875 1
0.875 0.875 0.875 1
0.875 0.875 0.875 1
0.875 0.875 0.875 1
0.875 0.875 0.875 1
0.875 0.875 0.875 1
0.875 0.875 0.875 1
0.875 0.875 0.875 1
0.875 0.875 0.875 1
0.875 0.875 0.875 1
0.875 0.875 0.875 1
0.875 0.875 0.875 1
0.875 0.875 0.875 1
0.875 0.875 0.875 1
0.875 0.875 0.875 1
0.875 0.875 0.875 1
0.875 0.875 0.875 1
0.875 0.875 0.875 1
0.875 0.875 0.875 1
0.875 0.875 0.875 1
0.875 0.875 0.875 1
0.875 0.875 0.875 1
0.875 0.875 0.875 1
0.875 0.875 0.875 1
0.875 0.875 0.875 1
0.875 0.875 0.875 1
0.875 0.875 0.875 1
0.875 0.875 0.875 1
0.875 0.875 0.875 1
0.875 0.875 0.875 1
0.875 0.875 0.875 1
0.875 0.875 0.875 1
0.875 0.875 0.875 1
0.875 0.875 0.875 1
0.875 0.875 0.875 1
0.875 0.875 0.875 1
0.875 0.875 0.875 1
0.875 0.875 0.875 1
0.875 0.875 0.875 1
0.875 0.875 0.875 1
0.875 0.875 0.875 1
0.875 0.875 0.875 1
0.875 0.875 0.875 1
0.875 0.875 0.875 1
0.875 0.875 0.875 1
0.875 0.875 0.875 1
0.875 0.875 0.875 1
0.875 0.875 0.875 1
0.875 0.875 0.875 1
0.875 0.875 0.875 1
0.875 0.875 0.875 1
0.875 0.875 0.875 1
0.875 0.875 0.875 1
0.875 0.875 0.875 1
0.875 0.875 0.875 1
0.875 0.875 0.875 1
0.875 0.875 0.875 1
0.875 0.875 0.875 1
0.875 0.875 0.875 1
0.875 0.875 0.875 1
0.875 0.875 0.875 1
0.875 0.875 0.875 1
0.875 0.875 0.875 1
0.875 0.875 0.875 1
0.875 0.875 0.875 1
0.875 0.875 0.875 1
0.875 0.875 0.875 1
0.875 0.875 0.875 1
0.875 0.875 0.875 1
0.875 0.875 0.875 1
0.875 0.875 0.875 1
0.875 0.875 0.875 1
0.875 0.875 0.875 1
0.875 0.875 0.875 1
0.875 0.875 0.875 1
0.875 0.875 0.875 1
0.875 0.875 0.875 1
0.875 0.875 0.875 1
0.875 0.875 0.875 1
0.875 0.875 0.875 1
0.875 0.875 0.875 1
0.875 0.875 0.875 1
0.875 0.875 0.875 1
0.875 0.875 0.875 1
0.875 0.875 0.875 1
0.875 0.875 0.875 1
0.875 0.875 0.875 1
0.875 0.875 0.875 1
0.875 0.875 0.875 1
0.875 0.875 0.875 1
0.875 0.875 0.875 1
0.875 0.875 0.875 1
0.875 0.875 0.875 1
0.875 0.875 0.875 1
0.875 0.875 0.875 1
0.875 0.875 0.875 1
0.875 0.875 0.875 1
0.875 0.875 0.875 1
0.875 0.875 0.875 1
0.875 0.875 0.875 1
0.875 0.875 0.875 1
0.875 0.875 0.875 1
0.875 0.875 0.875 1
0.875 0.875 0.875 1
0.875 0.875 0.875 1
0.875 0.875 0.875 1
0.875 0.875 0.875 1
0.875 0.875 0.875 1
0.875 0.875 0.875 1
0.875 0.875 0.875 1
0.875 0.875 0.875 1