# vtk DataFile Version 3.0
Gocad TSurf to VTK
ASCII
DATASET POLYDATA
POINTS 4722 float
21545097.359 4546554.234 -1000.000
21545251.672 4546494.867 -676.350
21545245.391 4546484.273 -677.140
21545393.438 4546414.316 -354.281
21545239.109 4546473.684 -677.507
21545345.172 4546864.000 -1000.000
21545437.531 4546727.191 -676.350
21545035.406 4546716.859 -1500.000
21544842.938 4546552.309 -1500.000
21545221.266 4546949.184 -1500.000
21544973.453 4546879.484 -2000.000
21545321.938 4546987.906 -1500.000
21545298.703 4547111.813 -2000.000
21545546.516 4547096.320 -1500.000
21546522.266 4547483.527 -1000.000
21546429.344 4547560.969 -1500.000
21546429.219 4547284.145 -672.367
21546438.953 4547289.898 -672.297
21545546.406 4546819.500 -672.367
21546336.188 4547084.766 -344.733
21545536.672 4546813.746 -672.437
21545728.188 4546763.492 -344.873
21545526.953 4546807.992 -672.507
21545708.719 4546751.980 -345.013
21545517.219 4546802.234 -672.576
21545689.266 4546740.469 -345.153
21545507.500 4546796.480 -672.646
21545669.813 4546728.961 -345.293
21545498.391 4546788.094 -673.056
21545651.625 4546712.188 -346.112
21545489.297 4546779.711 -673.466
21545633.438 4546695.422 -346.933
21545480.203 4546771.324 -673.876
21545615.234 4546678.648 -347.752
21545471.109 4546762.938 -674.286
21545597.031 4546661.879 -348.572
21545462.000 4546754.555 -674.696
21545578.844 4546645.109 -349.392
21545452.906 4546746.172 -675.106
21545560.656 4546628.340 -350.212
21545443.813 4546737.785 -675.516
21545542.469 4546611.570 -351.032
21545529.906 4546590.383 -352.700
21545406.000 4546435.500 -352.700
21545641.109 4546485.355 -26.547
21545622.266 4546453.578 -29.050
21545668.406 4546510.508 -25.318
21545739.750 4546359.141 297.937
21545776.141 4546392.680 299.576
21545695.688 4546535.664 -24.088
21545812.516 4546426.219 301.216
21545722.969 4546560.820 -22.858
21545848.906 4546459.758 302.856
21545750.266 4546585.977 -21.628
21545885.297 4546493.301 304.496
21545777.563 4546611.129 -20.399
21545921.688 4546526.840 306.135
21545804.844 4546636.285 -19.169
21545958.063 4546560.379 307.775
21545832.125 4546661.438 -17.939
21545994.453 4546593.918 309.415
21545861.313 4546678.703 -17.729
21546033.359 4546616.938 309.694
21545890.500 4546695.969 -17.520
21546072.281 4546639.961 309.974
21545919.688 4546713.234 -17.310
21546111.188 4546662.980 310.254
21545948.859 4546730.500 -17.100
21545747.625 4546775.000 -344.733
21546150.094 4546686.000 310.534
21546243.141 4546885.383 -17.100
21546189.000 4546709.020 310.814
21546272.313 4546902.648 -16.890
21546227.922 4546732.043 311.093
21546301.500 4546919.914 -16.680
21546355.625 4547096.273 -344.593
21546266.828 4546755.063 311.373
21546330.688 4546937.180 -16.470
21546375.094 4547107.785 -344.453
21546304.500 4546784.164 312.425
21546358.938 4546959.004 -15.681
21546394.547 4547119.297 -344.314
21546342.172 4546813.262 313.478
21546387.188 4546980.828 -14.892
21546413.375 4547133.844 -343.787
21546379.844 4546842.363 314.530
21546415.453 4547002.656 -14.102
21546432.219 4547148.395 -343.261
21546417.516 4546871.465 315.583
21546443.703 4547024.480 -13.313
21546451.063 4547162.945 -342.735
21546455.188 4546900.563 316.635
21546471.953 4547046.305 -12.524
21546469.891 4547177.496 -342.209
21546492.859 4546929.664 317.687
21546500.219 4547068.129 -11.735
21546488.719 4547192.047 -341.683
21546530.531 4546958.766 318.740
21546528.469 4547089.957 -10.945
21546507.563 4547206.594 -341.156
21546568.203 4546987.863 319.792
21546556.719 4547111.781 -10.156
21546526.406 4547221.148 -340.630
21546605.875 4547016.965 320.399
21546584.969 4547133.605 -9.701
21546545.234 4547235.695 -340.104
21546626.203 4547047.281 318.920
21546600.219 4547156.344 -10.810
21546564.063 4547250.246 -339.801
21546646.547 4547077.598 317.440
21546615.469 4547179.078 -11.920
21546574.234 4547265.406 -340.540
21546666.875 4547107.914 315.962
21546630.719 4547201.816 -13.029
21546584.406 4547280.563 -341.280
21546659.922 4547216.180 -15.573
21546594.563 4547295.719 -342.019
21546705.813 4547127.066 312.570
21546689.125 4547230.543 -18.116
21546614.031 4547305.297 -343.715
21546744.734 4547146.215 309.179
21546718.313 4547244.906 -20.660
21546633.500 4547314.871 -345.410
21546783.672 4547165.367 305.787
21546747.516 4547259.273 -23.202
21546672.438 4547334.023 -348.802
21546822.594 4547184.520 302.397
21546776.719 4547273.637 -25.746
21546691.906 4547343.602 -350.498
21546861.531 4547203.672 299.005
21546805.906 4547287.996 -27.256
21546711.359 4547353.172 -351.504
21546900.453 4547222.820 296.991
21546835.109 4547302.359 -26.884
21546730.828 4547362.750 -351.256
21546939.391 4547241.973 297.489
21546866.594 4547318.309 -26.469
21546751.813 4547373.383 -350.979
21546981.359 4547263.234 298.041
21546898.063 4547334.258 -26.055
21546772.797 4547384.016 -350.703
21547023.328 4547284.500 298.594
21546929.531 4547350.203 -25.641
21546793.781 4547394.645 -350.427
21547065.297 4547305.762 299.146
21546961.000 4547366.152 -25.226
21546814.750 4547405.277 -350.151
21547107.250 4547327.027 299.699
21547108.141 4547490.059 -25.226
21547149.219 4547348.289 300.251
21547139.625 4547506.004 -24.812
21547109.031 4547653.086 -350.151
21547191.188 4547369.555 300.803
21547171.094 4547521.953 -24.397
21547130.016 4547663.719 -349.875
21547233.156 4547390.816 301.356
21547202.563 4547537.898 -23.983
21547151.000 4547674.352 -349.598
21547271.828 4547420.289 302.128
21547231.578 4547560.004 -23.404
21547171.984 4547684.984 -349.322
21547310.484 4547449.762 302.901
21547260.563 4547582.109 -22.825
21547191.313 4547699.719 -348.936
21547349.156 4547479.238 303.673
21547289.563 4547604.215 -22.245
21547210.656 4547714.453 -348.550
21547318.563 4547626.320 -21.666
21547229.984 4547729.195 -348.163
21547387.813 4547508.711 304.446
21547347.563 4547648.426 -21.087
21547249.313 4547743.930 -347.777
21547426.484 4547538.184 305.218
21547376.563 4547670.531 -20.507
21547287.969 4547773.402 -347.005
21547465.141 4547567.656 305.990
21547405.563 4547692.637 -19.928
21547307.313 4547788.141 -346.619
21547503.813 4547597.133 306.763
21547434.563 4547714.742 -19.349
21547326.641 4547802.875 -346.232
21547542.469 4547626.605 307.535
21547463.563 4547736.844 -18.769
21547345.969 4547817.613 -345.846
21547581.141 4547656.078 308.308
21547484.531 4547761.926 -18.108
21547359.969 4547834.336 -345.405
21547609.109 4547689.520 309.189
21547505.516 4547787.008 -17.447
21547373.938 4547851.055 -344.964
21547637.078 4547722.961 310.071
21547526.484 4547812.090 -16.785
21547387.938 4547867.773 -344.524
21547665.047 4547756.402 310.953
21547543.219 4547843.719 -15.948
21547399.078 4547888.859 -343.965
21547687.344 4547798.574 312.069
21547559.938 4547875.348 -15.111
21547410.219 4547909.945 -343.407
21547709.641 4547840.746 313.186
21547576.656 4547906.977 -14.273
21547421.375 4547931.035 -342.849
21547731.938 4547882.922 314.302
21547593.375 4547938.609 -13.436
21547432.531 4547952.121 -342.291
21547754.234 4547925.094 315.419
21547610.094 4547970.234 -12.599
21547443.672 4547973.207 -341.732
21547776.531 4547967.266 316.535
21547626.844 4548001.867 -11.761
21547454.828 4547994.293 -341.174
21547798.844 4548009.438 317.651
21547789.469 4548179.980 -11.761
21547780.094 4548350.523 -341.174
21547821.141 4548051.609 318.768
21547806.188 4548211.609 -10.924
21547843.438 4548093.785 319.575
21547822.906 4548243.242 -10.319
21547791.234 4548371.609 -340.616
21547865.734 4548135.957 314.719
21547839.625 4548274.867 -13.961
21547802.375 4548392.695 -340.213
21547888.031 4548178.129 309.864
21547856.359 4548306.500 -17.602
21547813.531 4548413.781 -342.640
21547915.484 4548205.785 306.107
21547876.938 4548327.242 -20.420
21547824.688 4548434.867 -345.068
21547942.938 4548233.441 302.349
21547897.531 4548347.984 -23.238
21547838.406 4548448.695 -346.947
21547970.391 4548261.098 298.592
21547918.125 4548368.727 -26.056
21547852.125 4548462.523 -348.825
21547943.734 4548383.230 -28.527
21547865.859 4548476.352 -350.704
21548004.531 4548280.438 295.297
21547969.344 4548397.730 -30.999
21547882.938 4548486.023 -352.351
21548038.688 4548299.773 292.002
21547994.953 4548412.234 -33.470
21547900.000 4548495.688 -353.999
21548072.828 4548319.113 288.707
21548020.563 4548426.742 -35.941
21547917.078 4548505.359 -355.647
21548106.969 4548338.453 285.412
21548050.906 4548435.563 -38.104
21547954.375 4548520.910 -358.736
21548147.438 4548350.215 282.527
21548081.266 4548444.383 -40.268
21547974.625 4548526.789 -360.178
21548187.906 4548361.977 279.643
21548111.625 4548453.207 -42.432
21547994.859 4548532.672 -361.621
21548228.391 4548373.742 276.758
21548282.000 4548522.906 -42.432
21548268.859 4548385.504 273.874
21548312.344 4548531.727 -44.595
21548335.594 4548672.066 -361.621
21548309.328 4548397.266 270.989
21548342.688 4548540.547 -46.758
21548355.828 4548677.945 -363.063
21548354.750 4548404.672 268.282
21548376.766 4548546.102 -48.788
21548376.063 4548683.828 -364.505
21548410.828 4548551.652 -49.913
21548398.781 4548687.531 -365.859
21548400.172 4548412.074 266.783
21548444.891 4548557.207 -49.942
21548421.484 4548691.234 -366.609
21548445.594 4548419.480 266.743
21548478.969 4548562.762 -49.972
21548444.188 4548694.938 -366.628
21548491.016 4548426.887 266.704
21548513.031 4548568.313 -50.001
21548466.906 4548698.641 -366.648
21548536.438 4548434.289 266.665
21548547.109 4548573.867 -50.031
21548512.344 4548706.043 -366.687
21548581.875 4548441.695 266.626
21548581.172 4548579.422 -50.060
21548535.047 4548709.746 -366.707
21548627.297 4548449.102 266.586
21548615.234 4548584.977 -50.090
21548557.750 4548713.449 -366.727
21548672.719 4548456.508 266.547
21548649.313 4548590.531 -50.119
21548580.469 4548717.148 -366.746
21548718.141 4548463.910 266.508
21548683.375 4548596.086 -50.149
21548603.188 4548720.852 -366.766
21548763.563 4548471.316 266.468
21548718.156 4548596.113 -49.740
21548626.375 4548720.875 -366.494
21548809.938 4548471.355 267.013
21548752.938 4548596.145 -49.332
[...]
POINT_DATA 4722
COLOR_SCALARS GocadColor 4
0.486275 0.596078 0.827451 1
0.486275 0.596078 0.827451 1
0.486275 0.596078 0.827451 1
0.486275 0.596078 0.827451 1
0.486275 0.596078 0.827451 1
0.486275 0.596078 0.827451 1
0.486275 0.596078 0.827451 1
0.486275 0.596078 0.827451 1
0.486275 0.596078 0.827451 1
0.486275 0.596078 0.827451 1
0.486275 0.596078 0.827451 1
0.486275 0.596078 0.827451 1
0.486275 0.596078 0.827451 1
0.486275 0.596078 0.827451 1
0.486275 0.596078 0.827451 1
0.486275 0.596078 0.827451 1
0.486275 0.596078 0.827451 1
0.486275 0.596078 0.827451 1
0.486275 0.596078 0.827451 1
0.486275 0.596078 0.827451 1
0.486275 0.596078 0.827451 1
0.486275 0.596078 0.827451 1
0.486275 0.596078 0.827451 1
0.486275 0.596078 0.827451 1
0.486275 0.596078 0.827451 1
0.486275 0.596078 0.827451 1
0.486275 0.596078 0.827451 1
0.486275 0.596078 0.827451 1
0.486275 0.596078 0.827451 1
0.486275 0.596078 0.827451 1
0.486275 0.596078 0.827451 1
0.486275 0.596078 0.827451 1
0.486275 0.596078 0.827451 1
0.486275 0.596078 0.827451 1
0.486275 0.596078 0.827451 1
0.486275 0.596078 0.827451 1
0.486275 0.596078 0.827451 1
0.486275 0.596078 0.827451 1
0.486275 0.596078 0.827451 1
0.486275 0.596078 0.827451 1
0.486275 0.596078 0.827451 1
0.486275 0.596078 0.827451 1
0.486275 0.596078 0.827451 1
0.486275 0.596078 0.827451 1
0.486275 0.596078 0.827451 1
0.486275 0.596078 0.827451 1
0.486275 0.596078 0.827451 1
0.486275 0.596078 0.827451 1
0.486275 0.596078 0.827451 1
0.486275 0.596078 0.827451 1
0.486275 0.596078 0.827451 1
0.486275 0.596078 0.827451 1
0.486275 0.596078 0.827451 1
0.486275 0.596078 0.827451 1
0.486275 0.596078 0.827451 1
0.486275 0.596078 0.827451 1
0.486275 0.596078 0.827451 1
0.486275 0.596078 0.827451 1
0.486275 0.596078 0.827451 1
0.486275 0.596078 0.827451 1
0.486275 0.596078 0.827451 1
0.486275 0.596078 0.827451 1
0.486275 0.596078 0.827451 1
0.486275 0.596078 0.827451 1
0.486275 0.596078 0.827451 1
0.486275 0.596078 0.827451 1
0.486275 0.596078 0.827451 1
0.486275 0.596078 0.827451 1
0.486275 0.596078 0.827451 1
0.486275 0.596078 0.827451 1
0.486275 0.596078 0.827451 1
0.486275 0.596078 0.827451 1
0.486275 0.596078 0.827451 1
0.486275 0.596078 0.827451 1
0.486275 0.596078 0.827451 1
0.486275 0.596078 0.827451 1
0.486275 0.596078 0.827451 1
0.486275 0.596078 0.827451 1
0.486275 0.596078 0.827451 1
0.486275 0.596078 0.827451 1
0.486275 0.596078 0.827451 1
0.486275 0.596078 0.827451 1
0.486275 0.596078 0.827451 1
0.486275 0.596078 0.827451 1
0.486275 0.596078 0.827451 1
0.486275 0.596078 0.827451 1
0.486275 0.596078 0.827451 1
0.486275 0.596078 0.827451 1
0.486275 0.596078 0.827451 1
0.486275 0.596078 0.827451 1
0.486275 0.596078 0.827451 1
0.486275 0.596078 0.827451 1
0.486275 0.596078 0.827451 1
0.486275 0.596078 0.827451 1
0.486275 0.596078 0.827451 1
0.486275 0.596078 0.827451 1
0.486275 0.596078 0.827451 1
0.486275 0.596078 0.827451 1
0.486275 0.596078 0.827451 1
0.486275 0.596078 0.827451 1
0.486275 0.596078 0.827451 1
0.486275 0.596078 0.827451 1
0.486275 0.596078 0.827451 1
0.486275 0.596078 0.827451 1
0.486275 0.596078 0.827451 1
0.486275 0.596078 0.827451 1
0.486275 0.596078 0.827451 1
0.486275 0.596078 0.827451 1
0.486275 0.596078 0.827451 1
0.486275 0.596078 0.827451 1
0.486275 0.596078 0.827451 1
0.486275 0.596078 0.827451 1
0.486275 0.596078 0.827451 1
0.486275 0.596078 0.827451 1
0.486275 0.596078 0.827451 1
0.486275 0.596078 0.827451 1
0.486275 0.596078 0.827451 1
0.486275 0.596078 0.827451 1
0.486275 0.596078 0.827451 1
0.486275 0.596078 0.827451 1
0.486275 0.596078 0.827451 1
0.486275 0.596078 0.827451 1
0.486275 0.596078 0.827451 1
0.486275 0.596078 0.827451 1
0.486275 0.596078 0.827451 1
0.486275 0.596078 0.827451 1
0.486275 0.596078 0.827451 1
0.486275 0.596078 0.827451 1
0.486275 0.596078 0.827451 1
0.486275 0.596078 0.827451 1
0.486275 0.596078 0.827451 1
0.486275 0.596078 0.827451 1
0.486275 0.596078 0.827451 1
0.486275 0.596078 0.827451 1
0.486275 0.596078 0.827451 1
0.486275 0.596078 0.827451 1
0.486275 0.596078 0.827451 1
0.486275 0.596078 0.827451 1
0.486275 0.596078 0.827451 1
0.486275 0.596078 0.827451 1
0.486275 0.596078 0.827451 1
0.486275 0.596078 0.827451 1
0.486275 0.596078 0.827451 1
0.486275 0.596078 0.827451 1
0.486275 0.596078 0.827451 1
0.486275 0.596078 0.827451 1
0.486275 0.596078 0.827451 1
0.486275 0.596078 0.827451 1
0.486275 0.596078 0.827451 1
0.486275 0.596078 0.827451 1
0.486275 0.596078 0.827451 1
0.486275 0.596078 0.827451 1
0.486275 0.596078 0.827451 1
0.486275 0.596078 0.827451 1
0.486275 0.596078 0.827451 1
0.486275 0.596078 0.827451 1
0.486275 0.596078 0.827451 1
0.486275 0.596078 0.827451 1
0.486275 0.596078 0.827451 1
0.486275 0.596078 0.827451 1
0.486275 0.596078 0.827451 1
0.486275 0.596078 0.827451 1
0.486275 0.596078 0.827451 1
0.486275 0.596078 0.827451 1
0.486275 0.596078 0.827451 1
0.486275 0.596078 0.827451 1
0.486275 0.596078 0.827451 1
0.486275 0.596078 0.827451 1
0.486275 0.596078 0.827451 1
0.486275 0.596078 0.827451 1
0.486275 0.596078 0.827451 1
0.486275 0.596078 0.827451 1
0.486275 0.596078 0.827451 1
0.486275 0.596078 0.827451 1
0.486275 0.596078 0.827451 1
0.486275 0.596078 0.827451 1
0.486275 0.596078 0.827451 1
0.486275 0.596078 0.827451 1
0.486275 0.596078 0.827451 1
0.486275 0.596078 0.827451 1
0.486275 0.596078 0.827451 1
0.486275 0.596078 0.827451 1
0.486275 0.596078 0.827451 1
0.486275 0.596078 0.827451 1
0.486275 0.596078 0.827451 1
0.486275 0.596078 0.827451 1
0.486275 0.596078 0.827451 1
0.486275 0.596078 0.827451 1
0.486275 0.596078 0.827451 1
0.486275 0.596078 0.827451 1
0.486275 0.596078 0.827451 1
0.486275 0.596078 0.827451 1
0.486275 0.596078 0.827451 1
0.486275 0.596078 0.827451 1
0.486275 0.596078 0.827451 1
0.486275 0.596078 0.827451 1
0.486275 0.596078 0.827451 1
0.486275 0.596078 0.827451 1
0.486275 0.596078 0.827451 1
0.486275 0.596078 0.827451 1
0.486275 0.596078 0.827451 1
0.486275 0.596078 0.827451 1
0.486275 0.596078 0.827451 1
0.486275 0.596078 0.827451 1
0.486275 0.596078 0.827451 1
0.486275 0.596078 0.827451 1
0.486275 0.596078 0.827451 1
0.486275 0.596078 0.827451 1
0.486275 0.596078 0.827451 1
0.486275 0.596078 0.827451 1
0.486275 0.596078 0.827451 1
0.486275 0.596078 0.827451 1
0.486275 0.596078 0.827451 1
0.486275 0.596078 0.827451 1
0.486275 0.596078 0.827451 1
0.486275 0.596078 0.827451 1
0.486275 0.596078 0.827451 1
0.486275 0.596078 0.827451 1
0.486275 0.596078 0.827451 1
0.486275 0.596078 0.827451 1
0.486275 0.596078 0.827451 1
0.486275 0.596078 0.827451 1
0.486275 0.596078 0.827451 1
0.486275 0.596078 0.827451 1
0.486275 0.596078 0.827451 1
0.486275 0.596078 0.827451 1
0.486275 0.596078 0.827451 1
0.486275 0.596078 0.827451 1
0.486275 0.596078 0.827451 1
0.486275 0.596078 0.827451 1
0.486275 0.596078 0.827451 1
0.486275 0.596078 0.827451 1
0.486275 0.596078 0.827451 1
0.486275 0.596078 0.827451 1
0.486275 0.596078 0.827451 1
0.486275 0.596078 0.827451 1
0.486275 0.596078 0.827451 1
0.486275 0.596078 0.827451 1
0.486275 0.596078 0.827451 1
0.486275 0.596078 0.827451 1
0.486275 0.596078 0.827451 1
0.486275 0.596078 0.827451 1
0.486275 0.596078 0.827451 1
0.486275 0.596078 0.827451 1
0.486275 0.596078 0.827451 1
0.486275 0.596078 0.827451 1
0.486275 0.596078 0.827451 1
0.486275 0.596078 0.827451 1
0.486275 0.596078 0.827451 1
0.486275 0.596078 0.827451 1
0.486275 0.596078 0.827451 1
0.486275 0.596078 0.827451 1
0.486275 0.596078 0.827451 1
0.486275 0.596078 0.827451 1
0.486275 0.596078 0.827451 1
0.486275 0.596078 0.827451 1
0.486275 0.596078 0.827451 1
0.486275 0.596078 0.827451 1
0.486275 0.596078 0.827451 1
0.486275 0.596078 0.827451 1
0.486275 0.596078 0.827451 1
0.486275 0.596078 0.827451 1
0.486275 0.596078 0.827451 1
0.486275 0.596078 0.827451 1
0.486275 0.596078 0.827451 1
0.486275 0.596078 0.827451 1
0.486275 0.596078 0.827451 1
0.486275 0.596078 0.827451 1
0.486275 0.596078 0.827451 1
0.486275 0.596078 0.827451 1
0.486275 0.596078 0.827451 1
0.486275 0.596078 0.827451 1
0.486275 0.596078 0.827451 1
0.486275 0.596078 0.827451 1
0.486275 0.596078 0.827451 1
0.486275 0.596078 0.827451 1
0.486275 0.596078 0.827451 1
0.486275 0.596078 0.827451 1
0.486275 0.596078 0.827451 1
0.486275 0.596078 0.827451 1
0.486275 0.596078 0.827451 1
0.486275 0.596078 0.827451 1
0.486275 0.596078 0.827451 1
0.486275 0.596078 0.827451 1
0.486275 0.596078 0.827451 1
0.486275 0.596078 0.827451 1
0.486275 0.596078 0.827451 1
0.486275 0.596078 0.827451 1
0.486275 0.596078 0.827451 1
0.486275 0.596078 0.827451 1
0.486275 0.596078 0.827451 1
0.486275 0.596078 0.827451 1
0.486275 0.596078 0.827451 1
0.486275 0.596078 0.827451 1
0.486275 0.596078 0.827451 1
0.486275 0.596078 0.827451 1
0.486275 0.596078 0.827451 1
0.486275 0.596078 0.827451 1
0.486275 0.596078 0.827451 1
0.486275 0.596078 0.827451 1
0.486275 0.596078 0.827451 1
0.486275 0.596078 0.827451 1
0.486275 0.596078 0.827451 1
0.486275 0.596078 0.827451 1
0.486275 0.596078 0.827451 1
0.486275 0.596078 0.827451 1
0.486275 0.596078 0.827451 1
0.486275 0.596078 0.827451 1
0.486275 0.596078 0.827451 1
0.486275 0.596078 0.827451 1
0.486275 0.596078 0.827451 1
0.486275 0.596078 0.827451 1
0.486275 0.596078 0.827451 1
0.486275 0.596078 0.827451 1
0.486275 0.596078 0.827451 1
0.486275 0.596078 0.827451 1
0.486275 0.596078 0.827451 1
0.486275 0.596078 0.827451 1
0.486275 0.596078 0.827451 1
0.486275 0.596078 0.827451 1
0.486275 0.596078 0.827451 1
0.486275 0.596078 0.827451 1
0.486275 0.596078 0.827451 1
0.486275 0.596078 0.827451 1
0.486275 0.596078 0.827451 1
0.486275 0.596078 0.827451 1
0.486275 0.596078 0.827451 1
0.486275 0.596078 0.827451 1
0.486275 0.596078 0.827451 1
0.486275 0.596078 0.827451 1
0.486275 0.596078 0.827451 1
0.486275 0.596078 0.827451 1
0.486275 0.596078 0.827451 1
0.486275 0.596078 0.827451 1
0.486275 0.596078 0.827451 1
0.486275 0.596078 0.827451 1
0.486275 0.596078 0.827451 1
0.486275 0.596078 0.827451 1
0.486275 0.596078 0.827451 1
0.486275 0.596078 0.827451 1
0.486275 0.596078 0.827451 1
0.486275 0.596078 0.827451 1
0.486275 0.596078 0.827451 1
0.486275 0.596078 0.827451 1
0.486275 0.596078 0.827451 1
0.486275 0.596078 0.827451 1
0.486275 0.596078 0.827451 1
0.486275 0.596078 0.827451 1
0.486275 0.596078 0.827451 1
0.486275 0.596078 0.827451 1
0.486275 0.596078 0.827451 1
0.486275 0.596078 0.827451 1
0.486275 0.596078 0.827451 1
0.486275 0.596078 0.827451 1
0.486275 0.596078 0.827451 1
0.486275 0.596078 0.827451 1
0.486275 0.596078 0.827451 1
0.486275 0.596078 0.827451 1
0.486275 0.596078 0.827451 1
0.486275 0.596078 0.827451 1
0.486275 0.596078 0.827451 1
0.486275 0.596078 0.827451 1
0.486275 0.596078 0.827451 1
0.486275 0.596078 0.827451 1
0.486275 0.596078 0.827451 1
0.486275 0.596078 0.827451 1
0.486275 0.596078 0.827451 1
0.486275 0.596078 0.827451 1
0.486275 0.596078 0.827451 1
0.486275 0.596078 0.827451 1
0.486275 0.596078 0.827451 1
0.486275 0.596078 0.827451 1
0.486275 0.596078 0.827451 1
0.486275 0.596078 0.827451 1
0.486275 0.596078 0.827451 1
0.486275 0.596078 0.827451 1
0.486275 0.596078 0.827451 1
0.486275 0.596078 0.827451 1
0.486275 0.596078 0.827451 1
0.486275 0.596078 0.827451 1
0.486275 0.596078 0.827451 1
0.486275 0.596078 0.827451 1
0.486275 0.596078 0.827451 1
0.486275 0.596078 0.827451 1
0.486275 0.596078 0.827451 1
0.486275 0.596078 0.827451 1
0.486275 0.596078 0.827451 1
0.486275 0.596078 0.827451 1
0.486275 0.596078 0.827451 1
0.486275 0.596078 0.827451 1
0.486275 0.596078 0.827451 1
0.486275 0.596078 0.827451 1
0.486275 0.596078 0.827451 1
0.486275 0.596078 0.827451 1
0.486275 0.596078 0.827451 1
0.486275 0.596078 0.827451 1
0.486275 0.596078 0.827451 1
0.486275 0.596078 0.827451 1
0.486275 0.596078 0.827451 1
0.486275 0.596078 0.827451 1
0.486275 0.596078 0.827451 1
0.486275 0.596078 0.827451 1
0.486275 0.596078 0.827451 1
0.486275 0.596078 0.827451 1
0.486275 0.596078 0.827451 1
0.486275 0.596078 0.827451 1
0.486275 0.596078 0.827451 1
0.486275 0.596078 0.827451 1
0.486275 0.596078 0.827451 1
0.486275 0.596078 0.827451 1
0.486275 0.596078 0.827451 1
0.486275 0.596078 0.827451 1
0.486275 0.596078 0.827451 1
0.486275 0.596078 0.827451 1
0.486275 0.596078 0.827451 1
0.486275 0.596078 0.827451 1
0.486275 0.596078 0.827451 1
0.486275 0.596078 0.827451 1
0.486275 0.596078 0.827451 1
0.486275 0.596078 0.827451 1
0.486275 0.596078 0.827451 1
0.486275 0.596078 0.827451 1
0.486275 0.596078 0.827451 1
0.486275 0.596078 0.827451 1
0.486275 0.596078 0.827451 1
0.486275 0.596078 0.827451 1
0.486275 0.596078 0.827451 1
0.486275 0.596078 0.827451 1
0.486275 0.596078 0.827451 1
0.486275 0.596078 0.827451 1
0.486275 0.596078 0.827451 1
0.486275 0.596078 0.827451 1
0.486275 0.596078 0.827451 1
0.486275 0.596078 0.827451 1
0.486275 0.596078 0.827451 1
0.486275 0.596078 0.827451 1
0.486275 0.596078 0.827451 1
0.486275 0.596078 0.827451 1
0.486275 0.596078 0.827451 1
0.486275 0.596078 0.827451 1
0.486275 0.596078 0.827451 1
0.486275 0.596078 0.827451 1
0.486275 0.596078 0.827451 1
0.486275 0.596078 0.827451 1
0.486275 0.596078 0.827451 1
0.486275 0.596078 0.827451 1
0.486275 0.596078 0.827451 1
0.486275 0.596078 0.827451 1
0.486275 0.596078 0.827451 1
0.486275 0.596078 0.827451 1
0.486275 0.596078 0.827451 1
0.486275 0.596078 0.827451 1
0.486275 0.596078 0.827451 1
0.486275 0.596078 0.827451 1
0.486275 0.596078 0.827451 1
0.486275 0.596078 0.827451 1
0.486275 0.596078 0.827451 1
0.486275 0.596078 0.827451 1
0.486275 0.596078 0.827451 1
0.486275 0.596078 0.827451 1
0.486275 0.596078 0.827451 1
0.486275 0.596078 0.827451 1
0.486275 0.596078 0.827451 1
0.486275 0.596078 0.827451 1
0.486275 0.596078 0.827451 1
0.486275 0.596078 0.827451 1
0.486275 0.596078 0.827451 1
0.486275 0.596078 0.827451 1
0.486275 0.596078 0.827451 1
0.486275 0.596078 0.827451 1
0.486275 0.596078 0.827451 1
0.486275 0.596078 0.827451 1
0.486275 0.596078 0.827451 1
0.486275 0.596078 0.827451 1
0.486275 0.596078 0.827451 1
0.486275 0.596078 0.827451 1
0.486275 0.596078 0.827451 1
0.486275 0.596078 0.827451 1
0.486275 0.596078 0.827451 1
0.486275 0.596078 0.827451 1
0.486275 0.596078 0.827451 1
0.486275 0.596078 0.827451 1
0.486275 0.596078 0.827451 1
0.486275 0.596078 0.827451 1
0.486275 0.596078 0.827451 1
0.486275 0.596078 0.827451 1
0.486275 0.596078 0.827451 1
0.486275 0.596078 0.827451 1
0.486275 0.596078 0.827451 1
0.486275 0.596078 0.827451 1
0.486275 0.596078 0.827451 1
0.486275 0.596078 0.827451 1
0.486275 0.596078 0.827451 1
0.486275 0.596078 0.827451 1
0.486275 0.596078 0.827451 1
0.486275 0.596078 0.827451 1
0.486275 0.596078 0.827451 1
0.486275 0.596078 0.827451 1
0.486275 0.596078 0.827451 1
0.486275 0.596078 0.827451 1
0.486275 0.596078 0.827451 1
0.486275 0.596078 0.827451 1
0.486275 0.596078 0.827451 1
0.486275 0.596078 0.827451 1
0.486275 0.596078 0.827451 1
0.486275 0.596078 0.827451 1
0.486275 0.596078 0.827451 1
0.486275 0.596078 0.827451 1
0.486275 0.596078 0.827451 1
0.486275 0.596078 0.827451 1
0.486275 0.596078 0.827451 1
0.486275 0.596078 0.827451 1
0.486275 0.596078 0.827451 1
0.486275 0.596078 0.827451 1
0.486275 0.596078 0.827451 1
0.486275 0.596078 0.827451 1
0.486275 0.596078 0.827451 1
0.486275 0.596078 0.827451 1
0.486275 0.596078 0.827451 1
0.486275 0.596078 0.827451 1
0.486275 0.596078 0.827451 1
0.486275 0.596078 0.827451 1
0.486275 0.596078 0.827451 1
0.486275 0.596078 0.827451 1
0.486275 0.596078 0.827451 1
0.486275 0.596078 0.827451 1
0.486275 0.596078 0.827451 1
0.486275 0.596078 0.827451 1
0.486275 0.596078 0.827451 1
0.486275 0.596078 0.827451 1
0.486275 0.596078 0.827451 1
0.486275 0.596078 0.827451 1
0.486275 0.596078 0.827451 1
0.486275 0.596078 0.827451 1
0.486275 0.596078 0.827451 1
0.486275 0.596078 0.827451 1
0.486275 0.596078 0.827451 1
0.486275 0.596078 0.827451 1
0.486275 0.596078 0.827451 1
0.486275 0.596078 0.827451 1
0.486275 0.596078 0.827451 1
0.486275 0.596078 0.827451 1
0.486275 0.596078 0.827451 1
0.486275 0.596078 0.827451 1
0.486275 0.596078 0.827451 1
0.486275 0.596078 0.827451 1
0.486275 0.596078 0.827451 1
0.486275 0.596078 0.827451 1
0.486275 0.596078 0.827451 1
0.486275 0.596078 0.827451 1
0.486275 0.596078 0.827451 1
0.486275 0.596078 0.827451 1
0.486275 0.596078 0.827451 1
0.486275 0.596078 0.827451 1
0.486275 0.596078 0.827451 1
0.486275 0.596078 0.827451 1
0.486275 0.596078 0.827451 1
0.486275 0.596078 0.827451 1
0.486275 0.596078 0.827451 1
0.486275 0.596078 0.827451 1
0.486275 0.596078 0.827451 1
0.486275 0.596078 0.827451 1
0.486275 0.596078 0.827451 1
0.486275 0.596078 0.827451 1
0.486275 0.596078 0.827451 1
0.486275 0.596078 0.827451 1
0.486275 0.596078 0.827451 1
0.486275 0.596078 0.827451 1
0.486275 0.596078 0.827451 1
0.486275 0.596078 0.827451 1
0.486275 0.596078 0.827451 1
0.486275 0.596078 0.827451 1
0.486275 0.596078 0.827451 1
0.486275 0.596078 0.827451 1
0.486275 0.596078 0.827451 1
0.486275 0.596078 0.827451 1
0.486275 0.596078 0.827451 1
0.486275 0.596078 0.827451 1
0.486275 0.596078 0.827451 1
0.486275 0.596078 0.827451 1
0.486275 0.596078 0.827451 1
0.486275 0.596078 0.827451 1
0.486275 0.596078 0.827451 1
0.486275 0.596078 0.827451 1
0.486275 0.596078 0.827451 1
0.486275 0.596078 0.827451 1
0.486275 0.596078 0.827451 1
0.486275 0.596078 0.827451 1
0.486275 0.596078 0.827451 1
0.486275 0.596078 0.827451 1
0.486275 0.596078 0.827451 1
0.486275 0.596078 0.827451 1
0.486275 0.596078 0.827451 1
0.486275 0.596078 0.827451 1
0.486275 0.596078 0.827451 1
0.486275 0.596078 0.827451 1
0.486275 0.596078 0.827451 1
0.486275 0.596078 0.827451 1
0.486275 0.596078 0.827451 1
0.486275 0.596078 0.827451 1
0.486275 0.596078 0.827451 1
0.486275 0.596078 0.827451 1
0.486275 0.596078 0.827451 1
0.486275 0.596078 0.827451 1
0.486275 0.596078 0.827451 1
0.486275 0.596078 0.827451 1
0.486275 0.596078 0.827451 1
0.486275 0.596078 0.827451 1
0.486275 0.596078 0.827451 1
0.486275 0.596078 0.827451 1
0.486275 0.596078 0.827451 1
0.486275 0.596078 0.827451 1
0.486275 0.596078 0.827451 1
0.486275 0.596078 0.827451 1
0.486275 0.596078 0.827451 1
0.486275 0.596078 0.827451 1
0.486275 0.596078 0.827451 1
0.486275 0.596078 0.827451 1
0.486275 0.596078 0.827451 1
0.486275 0.596078 0.827451 1
0.486275 0.596078 0.827451 1
0.486275 0.596078 0.827451 1
0.486275 0.596078 0.827451 1
0.486275 0.596078 0.827451 1
0.486275 0.596078 0.827451 1
0.486275 0.596078 0.827451 1
0.486275 0.596078 0.827451 1
0.486275 0.596078 0.827451 1
0.486275 0.596078 0.827451 1
0.486275 0.596078 0.827451 1
0.486275 0.596078 0.827451 1
0.486275 0.596078 0.827451 1
0.486275 0.596078 0.827451 1
0.486275 0.596078 0.827451 1
0.486275 0.596078 0.827451 1
0.486275 0.596078 0.827451 1
0.486275 0.596078 0.827451 1
0.486275 0.596078 0.827451 1
0.486275 0.596078 0.827451 1
0.486275 0.596078 0.827451 1
0.486275 0.596078 0.827451 1
0.486275 0.596078 0.827451 1
0.486275 0.596078 0.827451 1
0.486275 0.596078 0.827451 1
0.486275 0.596078 0.827451 1
0.486275 0.596078 0.827451 1
0.486275 0.596078 0.827451 1
0.486275 0.596078 0.827451 1
0.486275 0.596078 0.827451 1
0.486275 0.596078 0.827451 1
0.486275 0.596078 0.827451 1
0.486275 0.596078 0.827451 1
0.486275 0.596078 0.827451 1
0.486275 0.596078 0.827451 1
0.486275 0.596078 0.827451 1
0.486275 0.596078 0.827451 1
0.486275 0.596078 0.827451 1
0.486275 0.596078 0.827451 1
0.486275 0.596078 0.827451 1
0.486275 0.596078 0.827451 1
0.486275 0.596078 0.827451 1
0.486275 0.596078 0.827451 1
0.486275 0.596078 0.827451 1
0.486275 0.596078 0.827451 1
0.486275 0.596078 0.827451 1
0.486275 0.596078 0.827451 1
0.486275 0.596078 0.827451 1
0.486275 0.596078 0.827451 1
0.486275 0.596078 0.827451 1
0.486275 0.596078 0.827451 1
0.486275 0.596078 0.827451 1
0.486275 0.596078 0.827451 1
0.486275 0.596078 0.827451 1
0.486275 0.596078 0.827451 1
0.486275 0.596078 0.827451 1
0.486275 0.596078 0.827451 1
0.486275 0.596078 0.827451 1
0.486275 0.596078 0.827451 1
0.486275 0.596078 0.827451 1
0.486275 0.596078 0.827451 1
0.486275 0.596078 0.827451 1
0.486275 0.596078 0.827451 1
0.486275 0.596078 0.827451 1
0.486275 0.596078 0.827451 1
0.486275 0.596078 0.827451 1
0.486275 0.596078 0.827451 1
0.486275 0.596078 0.827451 1
0.486275 0.596078 0.827451 1