# vtk DataFile Version 3.0
Gocad TSurf to VTK
ASCII
DATASET POLYDATA
POINTS 299 float
21554005.547 4599346.445 -5000.000
21553982.438 4599542.898 -5000.000
21554018.109 4599565.203 -4500.000
21553982.438 4599641.125 -5000.000
21554071.563 4599211.289 -4500.000
21554056.672 4599451.719 -4000.000
21554051.781 4599161.539 -5000.000
21554149.563 4599026.391 -4500.000
21554117.344 4599151.258 -4000.000
21554138.453 4598988.195 -5000.000
21554242.453 4598826.406 -5000.000
21554426.922 4598673.922 -4500.000
21554357.141 4598795.906 -4000.000
21554398.469 4598653.063 -5000.000
21554583.359 4598525.945 -5000.000
21554617.594 4598542.469 -4500.000
21554814.484 4598416.156 -5000.000
21555039.844 4598369.938 -5000.000
21555058.188 4598400.906 -4500.000
21555544.547 4598501.219 -4000.000
21555305.641 4598398.828 -5000.000
21555469.875 4598455.797 -4500.000
21555525.203 4598433.492 -5000.000
21555742.875 4598532.359 -4500.000
21555802.547 4598520.164 -5000.000
21556091.016 4598692.703 -4500.000
21555966.344 4598671.672 -4000.000
21556097.234 4598653.063 -5000.000
21556368.813 4598820.633 -5000.000
21556576.375 4599108.727 -4500.000
21556501.703 4598959.305 -5000.000
21556623.047 4599103.758 -5000.000
21556621.156 4599183.844 -4500.000
21556356.375 4598908.578 -4000.000
21556744.391 4599305.992 -5000.000
21556797.406 4599573.867 -4500.000
21556679.953 4599365.047 -4000.000
21556831.063 4599537.117 -5000.000
21556828.359 4600000.000 -4500.000
21556824.641 4600000.000 -4369.042
21556834.328 4600000.000 -4582.159
21556894.625 4599802.914 -5000.000
21556853.813 4600000.000 -4657.958
21556879.172 4600000.000 -5000.000
21556795.516 4599743.516 -4000.000
21556777.109 4600000.000 -4000.000
21556647.734 4599394.578 -3500.000
21556383.375 4598987.219 -3500.000
21556745.969 4599713.820 -3500.000
21556615.516 4599424.102 -3000.000
21556769.688 4600000.000 -3616.418
21556758.453 4600000.000 -3500.000
21556717.078 4600000.000 -3238.943
21556667.156 4600000.000 -3000.000
21556563.516 4599393.766 -2500.000
21556652.281 4600000.000 -2849.144
21556436.391 4599123.641 -3000.000
21556309.266 4598999.414 -2500.000
21556216.828 4598892.516 -3000.000
21555835.469 4598690.281 -3000.000
21555827.234 4598647.750 -3500.000
21556056.484 4598830.406 -2500.000
21555598.563 4598613.719 -2500.000
21556364.156 4599126.531 -2000.000
21556040.594 4598849.180 -2000.000
21556638.625 4599655.234 -2000.000
21556654.516 4600000.000 -2036.784
21556459.500 4599333.102 -1500.000
21556658.922 4600000.000 -2000.000
21556024.703 4598867.953 -1500.000
21556205.266 4599008.078 -1000.000
21555702.563 4598748.063 -1000.000
21556407.500 4599302.766 -1000.000
21556252.422 4599138.180 -711.214
21556591.578 4600000.000 -1000.000
21556592.047 4600000.000 -986.812
21556593.172 4600000.000 -1018.088
21556586.531 4600000.000 -1296.330
21556581.672 4600000.000 -1500.000
21556648.141 4600000.000 -1966.337
21556465.141 4599483.234 -714.557
21556594.453 4600000.000 -962.362
21556362.547 4599307.125 -712.463
21556349.813 4599373.289 -426.789
21556249.063 4599204.211 -424.272
21556140.203 4599054.125 -421.714
21556227.641 4599241.609 -136.408
21556288.750 4599346.750 -138.369
21556151.719 4599125.359 -133.641
21556129.688 4599101.250 -132.836
21556184.719 4599237.789 152.764
21556206.203 4599279.000 151.456
21556163.234 4599196.586 154.072
21556133.875 4599164.453 155.145
21556104.500 4599132.313 156.218
21556075.141 4599100.180 156.571
21556045.781 4599068.047 155.863
21556063.625 4599028.953 -133.879
21556016.406 4599035.906 154.828
21555992.484 4598974.516 -134.812
21555997.938 4598945.250 -423.208
21555987.047 4599003.773 153.584
21555943.313 4598985.344 152.301
21555899.594 4598966.906 151.018
21555861.297 4598919.219 -138.628
21555855.859 4598948.477 149.734
21555812.125 4598930.047 148.495
21555768.406 4598911.609 147.288
21555686.359 4598843.070 -141.345
21555757.344 4598839.055 -425.752
21555724.672 4598893.180 146.081
21555680.953 4598874.742 144.873
21555637.219 4598856.313 143.666
21555530.188 4598782.820 -144.062
21555593.484 4598837.883 142.458
21555549.766 4598819.445 141.251
21555506.031 4598801.016 140.043
21555497.375 4598769.000 -144.968
21555510.594 4598746.195 -429.375
21555459.969 4598795.477 139.079
21555413.906 4598789.945 138.115
21555367.859 4598784.406 137.151
21555321.797 4598778.875 136.187
21555222.219 4598731.094 -149.306
21555275.734 4598773.336 135.223
21555229.672 4598767.805 134.259
21555183.625 4598762.266 133.295
21555187.688 4598726.938 -150.029
21555237.813 4598697.141 -432.389
21555137.563 4598756.734 132.331
21555091.500 4598751.195 131.366
21555049.469 4598724.484 -151.928
21555051.344 4598757.070 130.763
21555011.188 4598762.945 130.160
21554944.469 4598740.523 -152.832
21555047.594 4598691.891 -434.618
21554971.047 4598768.828 129.557
21554930.891 4598774.703 128.954
21554861.109 4598761.367 -153.893
21554890.734 4598780.578 128.350
21554859.906 4598796.617 128.143
21554838.000 4598773.391 -154.048
21554846.906 4598734.125 -436.032
21554829.094 4598812.648 127.936
21554798.266 4598828.688 127.728
21554754.531 4598831.375 -154.114
21554767.875 4598859.141 127.848
21554737.484 4598889.586 127.968
21554661.281 4598918.938 -153.934
21554710.797 4598834.047 -435.956
21554707.094 4598920.039 128.088
21554676.688 4598950.484 128.207
21554570.094 4599010.281 -153.574
21554646.297 4598980.938 128.327
21554615.906 4599011.383 128.447
21554585.516 4599041.836 128.567
21554497.281 4599108.789 -152.946
21554569.875 4598963.500 -435.776
21554559.125 4599082.469 128.986
21554532.734 4599123.102 129.405
21554506.344 4599163.734 129.824
21554437.906 4599200.211 -152.004
21554479.953 4599204.359 130.242
21554453.563 4599244.992 130.661
21554411.906 4599240.656 -152.004
21554370.250 4599236.320 -434.669
21554427.172 4599285.625 131.080
21554400.781 4599326.258 131.499
21554348.500 4599398.547 -151.686
21554392.609 4599364.883 131.738
21554384.438 4599403.508 131.086
21554376.266 4599442.133 130.434
21554342.375 4599427.516 -152.175
21554308.484 4599412.891 -434.783
21554378.219 4599485.969 130.080
21554380.172 4599529.805 130.300
21554382.125 4599573.641 130.520
21554348.250 4599642.453 -151.779
21554384.078 4599617.477 130.741
21554386.031 4599661.313 130.961
21554357.719 4599674.211 -151.676
21554398.641 4599703.648 131.098
21554411.250 4599745.984 131.236
21554423.844 4599788.320 131.374
21554401.969 4599843.141 -151.366
21554373.781 4599876.781 -434.175
21554436.453 4599830.656 131.512
21554449.063 4599872.992 131.650
21554420.859 4599906.641 -151.159
21554461.656 4599915.328 131.787
21554474.266 4599957.664 131.925
21554452.953 4600000.000 -150.992
21554449.125 4600000.000 -197.361
21554472.625 4600000.000 4.217
21554486.875 4600000.000 132.063
21554442.688 4600000.000 -275.612
21554423.016 4600000.000 -434.030
21554359.766 4599977.859 -717.019
21554377.156 4600000.000 -672.521
21554275.078 4599409.234 -717.480
21554286.922 4599227.648 -1000.000
21554315.391 4599252.297 -717.125
21554219.031 4599652.344 -1500.000
21554247.922 4599260.875 -1500.000
21554363.281 4600000.000 -805.484
21554354.984 4600000.000 -1000.000
21554373.828 4600000.000 -733.658
21554372.313 4600000.000 -717.015
21554337.609 4600000.000 -1406.783
21554333.641 4600000.000 -1500.000
21554332.391 4600000.000 -1790.667
21554203.141 4599718.789 -2000.000
21554314.703 4600000.000 -2000.000
21554185.813 4599372.102 -2000.000
21554203.141 4599858.906 -2500.000
21554156.906 4599416.883 -2500.000
21554279.156 4600000.000 -2319.789
21554264.063 4600000.000 -2500.000
21554265.750 4600000.000 -2640.740
21554276.953 4600000.000 -3000.000
21554125.141 4599632.117 -3000.000
21554209.281 4600000.000 -3345.496
21554182.922 4599140.977 -3000.000
21554334.594 4598970.523 -2500.000
21554111.125 4599310.797 -3500.000
21554530.031 4598683.867 -3500.000
21554089.469 4599634.367 -3500.000
21554198.047 4600000.000 -3500.000
21554174.563 4600000.000 -3728.286
21554088.453 4599804.188 -4000.000
21554154.891 4600000.000 -4000.000
21554018.109 4599638.875 -4500.000
21554138.188 4600000.000 -4300.484
21554005.547 4599756.688 -5000.000
21554057.547 4599906.922 -5000.000
21554104.969 4600000.000 -4791.393
21554093.344 4600000.000 -5000.000
21554130.688 4600000.000 -4500.000
21554908.516 4598483.078 -3500.000
21554989.844 4598437.656 -4000.000
21555113.203 4598493.820 -3000.000
21554512.266 4598736.508 -3000.000
21555359.203 4598500.406 -3500.000
21555303.875 4598522.711 -3000.000
21555095.875 4598527.047 -2500.000
21555633.219 4598658.500 -2000.000
21554515.156 4598781.289 -2500.000
21554792.500 4598623.828 -2000.000
21554518.047 4598826.063 -2000.000
21555078.531 4598560.266 -2000.000
21555017.859 4598596.383 -1500.000
21554663.938 4598745.172 -1500.000
21555199.875 4598620.945 -1000.000
21554864.734 4598655.609 -1000.000
21555207.328 4598657.656 -716.435
21555667.891 4598703.281 -1500.000
21555468.563 4598703.578 -715.230
21554855.828 4598694.867 -718.016
21555664.359 4598765.906 -714.687
21556010.719 4598924.031 -711.293
21554720.250 4598783.445 -718.008
21554539.250 4598947.180 -717.858
21554523.828 4598915.625 -1000.000
21554413.188 4599100.484 -717.439
21554234.922 4599184.313 -2000.000
21556227.688 4599320.203 150.149
21556249.172 4599361.406 148.842
21556270.656 4599402.609 147.584
21556304.875 4599377.648 -139.312
21556292.125 4599443.813 146.422
21556374.859 4599505.031 -141.927
21556335.094 4599526.227 144.098
21556490.188 4599638.094 -429.695
21556428.750 4599613.063 -143.670
21556569.922 4599835.898 -715.609
21556532.281 4599892.531 -433.011
21556560.703 4600000.000 -717.090
21556549.703 4600000.000 -626.642
21556523.531 4600000.000 -433.789
21556518.938 4600000.000 -400.681
21556494.469 4600000.000 -224.809
21556483.422 4600000.000 -150.520
21556484.688 4599979.109 -150.084
21556444.656 4600000.000 132.466
21556487.781 4599852.867 -148.243
21556451.250 4599891.406 134.733
21556465.516 4599704.922 -146.121
21556433.125 4599771.188 137.562
21556439.156 4599811.266 136.619
21556427.078 4599731.117 138.506
21556421.031 4599691.047 139.449
21556399.547 4599649.844 140.611
21556378.063 4599608.641 141.773
21556356.578 4599567.430 142.935
21556445.203 4599851.336 135.676
21556449.047 4599927.602 133.977
21556446.859 4599963.805 133.221
21556313.609 4599485.023 145.260
21556681.859 4600000.000 -2500.000

POLYGONS 436 1744
3 129 126 127
3 254 252 257
3 10 9 7
3 41 40 42
3 252 253 257
3 57 61 63
3 49 56 54
3 260 149 142
3 88 90 86
3 96 95 89
3 23 22 21
3 211 216 212
3 46 36 47
3 53 54 55
3 89 94 88
3 254 256 71
3 224 220 222
3 229 231 232
3 72 75 74
3 90 91 86
3 65 68 66
3 80 274 81
3 54 65 66
3 274 275 277
3 72 80 75
3 291 290 273
3 214 220 219
3 270 273 272
3 220 226 221
3 3 233 231
3 93 92 88
3 172 171 168
3 30 28 29
3 228 229 230
3 243 59 60
3 275 284 282
3 147 146 145
3 170 169 168
3 202 208 205
3 196 197 198
3 117 116 113
3 61 64 63
3 190 189 188
3 164 165 168
3 203 213 202
3 199 185 173
3 124 122 123
3 136 133 134
3 118 113 109
3 242 60 19
3 63 67 65
3 197 185 199
3 220 221 219
3 86 87 83
3 24 22 23
3 292 291 273
3 287 288 284
3 105 103 104
3 35 32 36
3 91 265 86
3 82 84 83
3 289 287 286
3 20 17 18
3 128 123 118
3 224 222 225
3 201 173 165
3 67 72 74
3 39 44 45
3 70 67 69
3 258 259 70
3 67 77 78
3 214 218 217
3 60 59 47
3 76 67 74
3 275 278 277
3 36 33 47
3 286 287 284
3 290 286 273
3 89 88 84
3 107 106 104
3 188 185 195
3 239 238 242
3 251 262 253
3 150 147 148
3 199 201 200
3 281 282 283
3 65 67 68
3 5 231 229
3 142 135 257
3 211 214 216
3 250 252 71
3 132 130 131
3 160 156 161
3 177 172 173
3 203 200 262
3 147 145 148
3 203 264 213
3 67 79 68
3 186 183 184
3 214 219 218
3 56 49 46
3 206 197 204
3 248 247 246
3 137 136 134
3 28 27 25
3 243 240 244
3 251 253 252
3 149 145 142
3 94 93 88
3 202 197 200
3 154 153 152
3 185 197 196
3 270 83 268
3 288 294 284
3 48 53 52
3 247 250 249
3 14 13 11
3 297 271 268
3 120 119 117
3 116 115 113
3 58 61 57
3 57 63 54
3 179 178 177
3 37 34 35
3 290 289 286
3 51 48 52
3 103 102 99
3 95 94 89
3 87 268 83
3 202 210 209
3 185 180 173
3 165 164 161
3 62 245 61
3 256 128 118
3 222 241 225
3 271 270 268
3 165 173 168
3 141 138 142
3 195 185 196
3 246 244 240
3 137 134 138
3 239 15 12
3 69 67 63
3 134 131 135
3 72 82 80
3 69 64 255
3 141 140 138
3 285 295 282
3 80 81 75
3 49 54 53
3 260 257 253
3 265 266 87
3 238 225 240
3 220 215 222
3 112 111 108
3 242 243 60
3 145 141 142
3 4 8 7
3 138 134 135
3 67 78 79
3 35 39 38
3 167 164 168
3 215 214 213
3 191 188 192
3 44 36 46
3 262 261 253
3 208 202 209
3 258 109 259
3 183 182 180
3 293 292 273
3 187 186 184
3 57 54 56
3 144 143 141
3 249 250 245
3 241 246 240
3 190 191 193
3 275 274 272
3 188 187 184
3 98 97 99
3 184 183 180
3 231 234 235
3 67 76 77
3 226 229 228
3 3 231 2
3 100 104 99
3 144 141 145
3 18 15 19
3 164 163 161
3 47 58 56
3 15 14 11
3 240 243 242
3 172 168 173
3 64 245 255
3 224 5 226
3 286 272 273
3 31 30 29
3 6 4 7
3 167 166 164
3 55 54 298
3 102 101 99
3 259 100 85
3 213 211 202
3 60 26 19
3 202 205 204
3 245 64 61
3 214 211 213
3 123 122 117
3 17 16 15
3 107 104 108
3 200 263 262
3 197 202 204
3 84 86 83
3 188 195 192
3 158 155 156
3 173 201 199
3 223 222 215
3 180 177 173
3 135 254 257
3 227 226 228
3 213 223 215
3 135 131 128
3 155 154 152
3 37 35 38
3 250 251 252
3 274 80 272
3 244 249 245
3 258 256 109
3 246 241 222
3 35 44 39
3 130 127 131
3 259 73 70
3 160 159 156
3 207 197 206
3 235 234 236
3 294 285 284
3 84 82 73
3 34 31 32
3 251 247 248
3 181 179 180
3 111 110 108
3 176 172 177
3 197 207 198
3 4 0 2
3 180 179 177
3 48 44 46
3 48 51 50
3 233 234 231
3 32 29 33
3 133 131 134
3 36 44 35
3 221 226 227
3 87 267 268
3 8 4 5
3 256 254 128
3 182 181 180
3 239 242 19
3 44 50 45
3 12 11 7
3 41 37 40
3 202 211 210
3 140 139 138
3 270 293 273
3 25 24 23
3 215 220 214
3 72 67 70
3 157 149 261
3 26 29 25
3 119 116 117
3 40 37 38
3 169 167 168
3 62 244 245
3 49 48 46
3 44 48 50
3 143 140 141
3 110 107 108
3 194 190 193
3 4 2 5
3 275 279 278
3 286 284 272
3 12 8 225
3 155 152 156
3 162 160 161
3 149 157 152
3 166 163 164
3 275 282 281
3 142 138 135
3 9 6 7
3 61 58 59
3 97 89 85
3 26 60 47
3 178 176 177
3 259 85 73
3 151 148 152
3 261 260 253
3 238 239 12
3 6 0 4
3 64 69 63
3 184 180 185
3 159 158 156
3 1 3 2
3 274 276 81
3 255 250 71
3 112 108 113
3 271 293 270
3 71 69 255
3 125 124 123
3 63 65 54
3 190 188 191
3 242 238 240
3 127 123 128
3 223 246 222
3 26 25 23
3 126 125 123
3 153 151 152
3 82 72 73
3 213 264 223
3 71 258 70
3 243 244 62
3 54 66 298
3 275 281 280
3 247 244 246
3 295 296 282
3 131 127 128
3 256 118 109
3 99 97 100
3 113 108 109
3 189 187 188
3 43 41 42
3 69 71 70
3 31 29 32
3 276 274 277
3 121 120 117
3 86 265 87
3 11 10 7
3 0 1 2
3 264 203 251
3 200 197 199
3 211 212 210
3 19 23 21
3 146 144 145
3 250 247 251
3 20 18 21
3 27 24 25
3 33 29 26
3 252 254 71
3 163 162 161
3 73 85 84
3 225 238 12
3 16 14 15
3 247 249 244
3 214 217 216
3 83 270 272
3 62 59 243
3 145 149 148
3 88 86 84
3 18 17 15
3 257 260 142
3 100 97 85
3 148 149 152
3 296 283 282
3 226 5 229
3 73 72 70
3 171 170 168
3 109 104 100
3 225 241 240
3 21 18 19
3 161 156 157
3 97 96 89
3 85 89 84
3 104 103 99
3 130 129 127
3 8 5 224
3 115 114 113
3 8 224 225
3 34 32 35
3 59 62 61
3 269 297 268
3 56 46 47
3 22 20 21
3 263 200 201
3 232 231 237
3 231 235 237
3 83 272 80
3 261 263 157
3 223 264 246
3 26 23 19
3 98 96 97
3 220 224 226
3 47 33 26
3 13 10 11
3 101 98 99
3 165 263 201
3 248 264 251
3 176 175 172
3 2 231 5
3 82 83 80
3 279 275 280
3 255 245 250
3 165 161 157
3 139 137 138
3 284 285 282
3 263 165 157
3 284 275 272
3 246 264 248
3 175 174 172
3 118 123 117
3 156 152 157
3 174 171 172
3 114 112 113
3 109 100 259
3 127 126 123
3 122 121 117
3 48 49 53
3 15 11 12
3 151 150 148
3 203 262 251
3 15 239 19
3 59 58 47
3 117 113 118
3 104 109 108
3 230 229 232
3 92 90 88
3 267 269 268
3 262 263 261
3 106 105 104
3 8 12 7
3 135 128 254
3 36 32 33
3 203 202 200
3 29 28 25
3 133 132 131
3 266 267 87
3 188 184 185
3 58 57 56
3 256 258 71
3 149 260 261

POINT_DATA 299
COLOR_SCALARS GocadColor 4
1 0.270588 0 1
1 0.270588 0 1
1 0.270588 0 1
1 0.270588 0 1
1 0.270588 0 1
1 0.270588 0 1
1 0.270588 0 1
1 0.270588 0 1
1 0.270588 0 1
1 0.270588 0 1
1 0.270588 0 1
1 0.270588 0 1
1 0.270588 0 1
1 0.270588 0 1
1 0.270588 0 1
1 0.270588 0 1
1 0.270588 0 1
1 0.270588 0 1
1 0.270588 0 1
1 0.270588 0 1
1 0.270588 0 1
1 0.270588 0 1
1 0.270588 0 1
1 0.270588 0 1
1 0.270588 0 1
1 0.270588 0 1
1 0.270588 0 1
1 0.270588 0 1
1 0.270588 0 1
1 0.270588 0 1
1 0.270588 0 1
1 0.270588 0 1
1 0.270588 0 1
1 0.270588 0 1
1 0.270588 0 1
1 0.270588 0 1
1 0.270588 0 1
1 0.270588 0 1
1 0.270588 0 1
1 0.270588 0 1
1 0.270588 0 1
1 0.270588 0 1
1 0.270588 0 1
1 0.270588 0 1
1 0.270588 0 1
1 0.270588 0 1
1 0.270588 0 1
1 0.270588 0 1
1 0.270588 0 1
1 0.270588 0 1
1 0.270588 0 1
1 0.270588 0 1
1 0.270588 0 1
1 0.270588 0 1
1 0.270588 0 1
1 0.270588 0 1
1 0.270588 0 1
1 0.270588 0 1
1 0.270588 0 1
1 0.270588 0 1
1 0.270588 0 1
1 0.270588 0 1
1 0.270588 0 1
1 0.270588 0 1
1 0.270588 0 1
1 0.270588 0 1
1 0.270588 0 1
1 0.270588 0 1
1 0.270588 0 1
1 0.270588 0 1
1 0.270588 0 1
1 0.270588 0 1
1 0.270588 0 1
1 0.270588 0 1
1 0.270588 0 1
1 0.270588 0 1
1 0.270588 0 1
1 0.270588 0 1
1 0.270588 0 1
1 0.270588 0 1
1 0.270588 0 1
1 0.270588 0 1
1 0.270588 0 1
1 0.270588 0 1
1 0.270588 0 1
1 0.270588 0 1
1 0.270588 0 1
1 0.270588 0 1
1 0.270588 0 1
1 0.270588 0 1
1 0.270588 0 1
1 0.270588 0 1
1 0.270588 0 1
1 0.270588 0 1
1 0.270588 0 1
1 0.270588 0 1
1 0.270588 0 1
1 0.270588 0 1
1 0.270588 0 1
1 0.270588 0 1
1 0.270588 0 1
1 0.270588 0 1
1 0.270588 0 1
1 0.270588 0 1
1 0.270588 0 1
1 0.270588 0 1
1 0.270588 0 1
1 0.270588 0 1
1 0.270588 0 1
1 0.270588 0 1
1 0.270588 0 1
1 0.270588 0 1
1 0.270588 0 1
1 0.270588 0 1
1 0.270588 0 1
1 0.270588 0 1
1 0.270588 0 1
1 0.270588 0 1
1 0.270588 0 1
1 0.270588 0 1
1 0.270588 0 1
1 0.270588 0 1
1 0.270588 0 1
1 0.270588 0 1
1 0.270588 0 1
1 0.270588 0 1
1 0.270588 0 1
1 0.270588 0 1
1 0.270588 0 1
1 0.270588 0 1
1 0.270588 0 1
1 0.270588 0 1
1 0.270588 0 1
1 0.270588 0 1
1 0.270588 0 1
1 0.270588 0 1
1 0.270588 0 1
1 0.270588 0 1
1 0.270588 0 1
1 0.270588 0 1
1 0.270588 0 1
1 0.270588 0 1
1 0.270588 0 1
1 0.270588 0 1
1 0.270588 0 1
1 0.270588 0 1
1 0.270588 0 1
1 0.270588 0 1
1 0.270588 0 1
1 0.270588 0 1
1 0.270588 0 1
1 0.270588 0 1
1 0.270588 0 1
1 0.270588 0 1
1 0.270588 0 1
1 0.270588 0 1
1 0.270588 0 1
1 0.270588 0 1
1 0.270588 0 1
1 0.270588 0 1
1 0.270588 0 1
1 0.270588 0 1
1 0.270588 0 1
1 0.270588 0 1
1 0.270588 0 1
1 0.270588 0 1
1 0.270588 0 1
1 0.270588 0 1
1 0.270588 0 1
1 0.270588 0 1
1 0.270588 0 1
1 0.270588 0 1
1 0.270588 0 1
1 0.270588 0 1
1 0.270588 0 1
1 0.270588 0 1
1 0.270588 0 1
1 0.270588 0 1
1 0.270588 0 1
1 0.270588 0 1
1 0.270588 0 1
1 0.270588 0 1
1 0.270588 0 1
1 0.270588 0 1
1 0.270588 0 1
1 0.270588 0 1
1 0.270588 0 1
1 0.270588 0 1
1 0.270588 0 1
1 0.270588 0 1
1 0.270588 0 1
1 0.270588 0 1
1 0.270588 0 1
1 0.270588 0 1
1 0.270588 0 1
1 0.270588 0 1
1 0.270588 0 1
1 0.270588 0 1
1 0.270588 0 1
1 0.270588 0 1
1 0.270588 0 1
1 0.270588 0 1
1 0.270588 0 1
1 0.270588 0 1
1 0.270588 0 1
1 0.270588 0 1
1 0.270588 0 1
1 0.270588 0 1
1 0.270588 0 1
1 0.270588 0 1
1 0.270588 0 1
1 0.270588 0 1
1 0.270588 0 1
1 0.270588 0 1
1 0.270588 0 1
1 0.270588 0 1
1 0.270588 0 1
1 0.270588 0 1
1 0.270588 0 1
1 0.270588 0 1
1 0.270588 0 1
1 0.270588 0 1
1 0.270588 0 1
1 0.270588 0 1
1 0.270588 0 1
1 0.270588 0 1
1 0.270588 0 1
1 0.270588 0 1
1 0.270588 0 1
1 0.270588 0 1
1 0.270588 0 1
1 0.270588 0 1
1 0.270588 0 1
1 0.270588 0 1
1 0.270588 0 1
1 0.270588 0 1
1 0.270588 0 1
1 0.270588 0 1
1 0.270588 0 1
1 0.270588 0 1
1 0.270588 0 1
1 0.270588 0 1
1 0.270588 0 1
1 0.270588 0 1
1 0.270588 0 1
1 0.270588 0 1
1 0.270588 0 1
1 0.270588 0 1
1 0.270588 0 1
1 0.270588 0 1
1 0.270588 0 1
1 0.270588 0 1
1 0.270588 0 1
1 0.270588 0 1
1 0.270588 0 1
1 0.270588 0 1
1 0.270588 0 1
1 0.270588 0 1
1 0.270588 0 1
1 0.270588 0 1
1 0.270588 0 1
1 0.270588 0 1
1 0.270588 0 1
1 0.270588 0 1
1 0.270588 0 1
1 0.270588 0 1
1 0.270588 0 1
1 0.270588 0 1
1 0.270588 0 1
1 0.270588 0 1
1 0.270588 0 1
1 0.270588 0 1
1 0.270588 0 1
1 0.270588 0 1
1 0.270588 0 1
1 0.270588 0 1
1 0.270588 0 1
1 0.270588 0 1
1 0.270588 0 1
1 0.270588 0 1
1 0.270588 0 1
1 0.270588 0 1
1 0.270588 0 1
1 0.270588 0 1
1 0.270588 0 1
1 0.270588 0 1
1 0.270588 0 1
1 0.270588 0 1
1 0.270588 0 1
1 0.270588 0 1
1 0.270588 0 1
1 0.270588 0 1
1 0.270588 0 1
1 0.270588 0 1
1 0.270588 0 1
1 0.270588 0 1
1 0.270588 0 1
1 0.270588 0 1
1 0.270588 0 1

