# vtk DataFile Version 3.0
Gocad TSurf to VTK
ASCII
DATASET POLYDATA
POINTS 1785 float
21589235.250 4578275.305 -5000.000
21589368.344 4578319.078 -4500.000
21589404.523 4578319.570 -4553.330
21589460.594 4578298.422 -5000.000
21589255.734 4578307.523 -4500.000
21589287.477 4578317.961 -4380.805
21589213.836 4578307.523 -4500.000
21589262.234 4578317.758 -4341.229
21589027.492 4578320.531 -4500.000
21589091.617 4578341.836 -4080.400
21588986.789 4578292.641 -5000.000
21588969.711 4578332.086 -4500.000
21588952.633 4578371.531 -4000.000
21588783.367 4578414.422 -4500.000
21588828.406 4578426.422 -4000.000
21588738.328 4578402.430 -5000.000
21588715.469 4578456.313 -4500.000
21588512.977 4578535.328 -5000.000
21588546.461 4578555.992 -4500.000
21588692.617 4578510.203 -4000.000
21588501.680 4578586.328 -4500.000
21588579.938 4578576.656 -4000.000
21588310.742 4578691.336 -5000.000
21588350.000 4578703.328 -4500.000
21588490.375 4578637.328 -4000.000
21588312.445 4578735.109 -4500.000
21588389.266 4578715.328 -4000.000
21588173.766 4578865.117 -4500.000
21588221.695 4578865.563 -4000.000
21588125.844 4578864.680 -5000.000
21588118.875 4578928.680 -4500.000
21587975.609 4579049.578 -5000.000
21588006.203 4579067.352 -4500.000
21588111.914 4578992.680 -4000.000
21587871.859 4579232.031 -4500.000
21587947.234 4579194.914 -4000.000
21587796.484 4579269.148 -5000.000
21587824.188 4579298.477 -4500.000
21587851.891 4579327.813 -4000.000
21587707.188 4579510.828 -4500.000
21587773.891 4579469.375 -4000.000
21587640.477 4579552.281 -5000.000
21587678.297 4579561.391 -4500.000
21587716.109 4579570.492 -4000.000
21587645.070 4579617.727 -4500.000
21587484.469 4579829.633 -5000.000
21587528.063 4579825.734 -4500.000
21587649.656 4579683.172 -4000.000
21587503.508 4579882.078 -4500.000
21587571.656 4579821.844 -4000.000
21587455.578 4579927.859 -5000.000
21587481.836 4579955.742 -4500.000
21587522.547 4579934.516 -4000.000
21587477.500 4579955.742 -4500.000
21587505.203 4579983.625 -4000.000
21587449.797 4579927.859 -5000.000
21587429.836 4580111.758 -4500.000
21587473.430 4580087.641 -4000.000
21587392.430 4580132.453 -4929.049
21587403.969 4580077.852 -5000.000
21587389.859 4580145.898 -4911.737
21587406.719 4580192.648 -4500.000
21587380.258 4580216.063 -4823.627
21587371.484 4580280.219 -4743.074
21587359.070 4580370.961 -4629.131
21587367.719 4580370.328 -4500.000
21587427.203 4580249.422 -4000.000
21587357.727 4580397.570 -4597.061
21587363.383 4580403.547 -4500.000
21587401.203 4580367.875 -4000.000
21587361.930 4580482.258 -4500.000
21587389.641 4580590.336 -4000.000
21587392.531 4580434.328 -4000.000
21587368.883 4580622.391 -4339.387
21587398.313 4580671.234 -4000.000
21587374.016 4580650.391 -4309.495
21587433.234 4580664.445 -3500.000
21587420.234 4580543.109 -3500.000
21587421.422 4580798.344 -4000.000
21587386.586 4580706.531 -4250.906
21587467.906 4580855.125 -3500.000
21587456.094 4580963.023 -4000.000
21587468.164 4580657.664 -3000.000
21587514.391 4580911.898 -3000.000
21587485.242 4580937.461 -3500.000
21587508.609 4580719.781 -2500.000
21587543.281 4580910.453 -2500.000
21587501.391 4580637.438 -2500.000
21587534.609 4580617.219 -2000.000
21587488.391 4580516.094 -2500.000
21587524.039 4580544.164 -2038.804
21587450.828 4580495.875 -3000.000
21587501.391 4580416.422 -2500.000
21587421.680 4580465.102 -3500.000
21587468.164 4580362.977 -3000.000
21587434.680 4580365.422 -3500.000
21587447.688 4580306.203 -3500.000
21587560.617 4580039.398 -3000.000
21587517.023 4580063.516 -3500.000
21587532.914 4580011.516 -3500.000
21587534.359 4580011.516 -3500.000
21587508.094 4579983.625 -4000.000
21587541.578 4579986.953 -3500.000
21587615.250 4579817.953 -3500.000
21587658.844 4579814.055 -3000.000
21587654.250 4579748.609 -3500.000
21587676.180 4579874.727 -2500.000
21587602.508 4580043.734 -2500.000
21587710.844 4579793.828 -2500.000
21587719.125 4579790.609 -2420.357
21587791.742 4579588.703 -3000.000
21587810.516 4579624.813 -2500.000
21587753.922 4579579.594 -3500.000
21587840.594 4579427.922 -3500.000
21587879.602 4579357.141 -3500.000
21587907.305 4579386.469 -3000.000
21588022.609 4579157.797 -3500.000
21588036.797 4579085.125 -4000.000
21588097.984 4579120.680 -3000.000
21588067.391 4579102.906 -3500.000
21588071.078 4579209.602 -2546.516
21587959.516 4579366.883 -2530.777
21588088.867 4579184.523 -2549.025
21588126.375 4579131.000 -2553.323
21588155.734 4579095.688 -2566.972
21588204.375 4579023.672 -2729.225
21588212.063 4579012.289 -2754.867
21588317.547 4578866.438 -3000.000
21588313.695 4578878.953 -2916.681
21588104.953 4579056.680 -3500.000
21588269.625 4578866.000 -3500.000
21588314.141 4578778.891 -4000.000
21588315.844 4578822.664 -3500.000
21588428.523 4578727.328 -3500.000
21588479.078 4578688.320 -3500.000
21588459.258 4578736.719 -3108.526
21588441.758 4578753.594 -3085.635
21588470.578 4578726.695 -3123.784
21588562.414 4578653.391 -3251.711
21588579.688 4578639.609 -3275.762
21588621.211 4578602.117 -3383.681
21588613.422 4578597.313 -3500.000
21588665.164 4578566.805 -3500.000
21588668.891 4578564.219 -3504.881
21588670.063 4578563.398 -3506.416
21588806.625 4578464.945 -3684.739
21588851.523 4578432.578 -3743.356
21588928.438 4578391.969 -3847.240
21588948.336 4578381.461 -3874.112
21589038.039 4578354.445 -4000.000
21589038.180 4578354.406 -4000.197
21589064.953 4578346.195 -4039.820
21588376.281 4578816.742 -3000.000
21588324.039 4578867.617 -2931.923
21588318.508 4578873.547 -2925.000
21587943.602 4579390.656 -2516.746
21587918.359 4579436.570 -2500.000
21587897.188 4579473.141 -2500.000
21587899.336 4579471.172 -2487.380
21587844.273 4579572.414 -2451.579
21587818.805 4579617.773 -2445.870
21587896.898 4579475.609 -2485.762
21587812.602 4579628.820 -2444.480
21587805.039 4579641.914 -2442.528
21587689.297 4579859.422 -2424.321
21587678.758 4579883.742 -2425.721
21587629.422 4579995.820 -2431.112
21587619.859 4580023.078 -2404.683
21587612.250 4580044.742 -2383.680
21587585.172 4580108.734 -2500.000
21587602.469 4580091.016 -2353.961
21587515.836 4580351.422 -2500.000
21587573.359 4580245.234 -2193.707
21587548.898 4580343.398 -2153.141
21587545.141 4580362.492 -2147.823
21587526.531 4580456.883 -2121.537
21587526.266 4580459.063 -2121.346
21587525.273 4580479.211 -2100.956
21587522.563 4580534.500 -2044.997
21587582.609 4580208.094 -2209.048
21587594.906 4580136.211 -2301.884
21587601.164 4580097.180 -2350.000
21587533.273 4580604.734 -2000.000
21587535.039 4580616.320 -1992.580
21587535.125 4580616.906 -1992.206
21587537.563 4580634.969 -1980.047
21587549.063 4580781.891 -2000.000
21587552.633 4580746.703 -1904.847
21587572.172 4580909.016 -2000.000
21587578.289 4580886.086 -1823.663
21587557.727 4580942.234 -2500.000
21587601.063 4580972.570 -2000.000
21587653.063 4581154.586 -2500.000
21587583.047 4580908.469 -1811.808
21587601.063 4580947.719 -1808.844
21587617.867 4580984.336 -1806.078
21587656.492 4581069.398 -1798.867
21587664.625 4581114.141 -2000.000
21587669.328 4581097.672 -1796.471
21587664.625 4581117.031 -2000.000
21587653.063 4581156.031 -2500.000
21587669.359 4581099.336 -1795.004
21587669.398 4581100.930 -1793.594
21587679.344 4581123.492 -1791.138
21587686.844 4581141.586 -1797.643
21587690.289 4581149.906 -1800.636
21587693.516 4581183.477 -2000.000
21587703.297 4581181.305 -1811.928
21587667.508 4581189.250 -2500.000
21587641.508 4581195.031 -3000.000
21587762.844 4581290.375 -2000.000
21587760.953 4581277.430 -1890.699
21587771.516 4581349.594 -2500.000
21587832.539 4581379.570 -2000.000
21587780.180 4581408.820 -3000.000
21587807.625 4581395.820 -2500.000
21587639.805 4581262.484 -3500.000
21587612.359 4581217.703 -3500.000
21587743.813 4581422.828 -3500.000
21587638.477 4581315.320 -3891.641
21587785.703 4581470.500 -3500.000
21587730.477 4581446.742 -3852.797
21587901.523 4581553.273 -3000.000
21587876.711 4581578.836 -3500.000
21587898.633 4581504.156 -2500.000
21587936.195 4581548.938 -2500.000
21587896.336 4581464.984 -2101.138
21587924.492 4581502.641 -2145.810
21587881.953 4581445.773 -2078.301
21587834.883 4581382.914 -2003.574
21587834.664 4581382.602 -2003.244
21587941.172 4581527.977 -2205.537
21587953.539 4581546.773 -2249.835
21587969.391 4581563.992 -2301.245
21587986.180 4581581.828 -2350.000
21588009.844 4581606.977 -2418.720
21588031.531 4581631.281 -2500.000
21588028.805 4581627.391 -2477.542
21588028.641 4581663.063 -3000.000
21588036.266 4581634.367 -2500.000
21588077.719 4581669.602 -2622.484
21588031.609 4581630.406 -2486.242
21588181.359 4581751.984 -2925.000
21588205.539 4581770.867 -2990.241
21588207.766 4581772.844 -3000.000
21588207.898 4581772.719 -2996.620
21588051.500 4581718.961 -3500.000
21588008.156 4581690.070 -3500.000
21588185.844 4581801.297 -3500.000
21588067.023 4581756.938 -3839.694
21588307.180 4581848.969 -3500.000
21588230.570 4581846.984 -3879.231
21588248.109 4581796.125 -3100.277
21588329.117 4581844.547 -3324.143
21588209.227 4581773.422 -3000.000
21588208.383 4581772.969 -2997.833
21588380.852 4581870.633 -3500.000
21588379.961 4581867.922 -3460.421
21588382.242 4581898.336 -3941.651
21588373.352 4581895.406 -3936.579
21588390.953 4581901.203 -3946.620
21588468.742 4581913.375 -4000.000
21588496.156 4581916.422 -4000.000
21588494.703 4581917.438 -4017.813
21588395.336 4581872.242 -3500.000
21588521.586 4581898.648 -3687.636
21588581.156 4581906.766 -3774.635
21588617.500 4581922.195 -4000.000
21588610.195 4581910.727 -3817.045
21588563.586 4581923.766 -4068.044
21588502.875 4581918.188 -4023.769
21588622.125 4581929.453 -4115.758
21588638.969 4581929.258 -4130.767
21588738.984 4581913.727 -4000.000
21588724.297 4581928.289 -4206.807
21588741.438 4581913.781 -4003.493
21588745.375 4581913.867 -4009.084
21588745.148 4581928.016 -4225.409
21588880.617 4581926.234 -4346.293
21588824.031 4581915.547 -4120.769
21588934.047 4581925.531 -4393.968
21588924.094 4581917.852 -4265.510
21588937.367 4581915.422 -4283.665
[...]
POINT_DATA 1785
COLOR_SCALARS GocadColor 4
0.875 0.875 0.875 1
0.875 0.875 0.875 1
0.875 0.875 0.875 1
0.875 0.875 0.875 1
0.875 0.875 0.875 1
0.875 0.875 0.875 1
0.875 0.875 0.875 1
0.875 0.875 0.875 1
0.875 0.875 0.875 1
0.875 0.875 0.875 1
0.875 0.875 0.875 1
0.875 0.875 0.875 1
0.875 0.875 0.875 1
0.875 0.875 0.875 1
0.875 0.875 0.875 1
0.875 0.875 0.875 1
0.875 0.875 0.875 1
0.875 0.875 0.875 1
0.875 0.875 0.875 1
0.875 0.875 0.875 1
0.875 0.875 0.875 1
0.875 0.875 0.875 1
0.875 0.875 0.875 1
0.875 0.875 0.875 1
0.875 0.875 0.875 1
0.875 0.875 0.875 1
0.875 0.875 0.875 1
0.875 0.875 0.875 1
0.875 0.875 0.875 1
0.875 0.875 0.875 1
0.875 0.875 0.875 1
0.875 0.875 0.875 1
0.875 0.875 0.875 1
0.875 0.875 0.875 1
0.875 0.875 0.875 1
0.875 0.875 0.875 1
0.875 0.875 0.875 1
0.875 0.875 0.875 1
0.875 0.875 0.875 1
0.875 0.875 0.875 1
0.875 0.875 0.875 1
0.875 0.875 0.875 1
0.875 0.875 0.875 1
0.875 0.875 0.875 1
0.875 0.875 0.875 1
0.875 0.875 0.875 1
0.875 0.875 0.875 1
0.875 0.875 0.875 1
0.875 0.875 0.875 1
0.875 0.875 0.875 1
0.875 0.875 0.875 1
0.875 0.875 0.875 1
0.875 0.875 0.875 1
0.875 0.875 0.875 1
0.875 0.875 0.875 1
0.875 0.875 0.875 1
0.875 0.875 0.875 1
0.875 0.875 0.875 1
0.875 0.875 0.875 1
0.875 0.875 0.875 1
0.875 0.875 0.875 1
0.875 0.875 0.875 1
0.875 0.875 0.875 1
0.875 0.875 0.875 1
0.875 0.875 0.875 1
0.875 0.875 0.875 1
0.875 0.875 0.875 1
0.875 0.875 0.875 1
0.875 0.875 0.875 1
0.875 0.875 0.875 1
0.875 0.875 0.875 1
0.875 0.875 0.875 1
0.875 0.875 0.875 1
0.875 0.875 0.875 1
0.875 0.875 0.875 1
0.875 0.875 0.875 1
0.875 0.875 0.875 1
0.875 0.875 0.875 1
0.875 0.875 0.875 1
0.875 0.875 0.875 1
0.875 0.875 0.875 1
0.875 0.875 0.875 1
0.875 0.875 0.875 1
0.875 0.875 0.875 1
0.875 0.875 0.875 1
0.875 0.875 0.875 1
0.875 0.875 0.875 1
0.875 0.875 0.875 1
0.875 0.875 0.875 1
0.875 0.875 0.875 1
0.875 0.875 0.875 1
0.875 0.875 0.875 1
0.875 0.875 0.875 1
0.875 0.875 0.875 1
0.875 0.875 0.875 1
0.875 0.875 0.875 1
0.875 0.875 0.875 1
0.875 0.875 0.875 1
0.875 0.875 0.875 1
0.875 0.875 0.875 1
0.875 0.875 0.875 1
0.875 0.875 0.875 1
0.875 0.875 0.875 1
0.875 0.875 0.875 1
0.875 0.875 0.875 1
0.875 0.875 0.875 1
0.875 0.875 0.875 1
0.875 0.875 0.875 1
0.875 0.875 0.875 1
0.875 0.875 0.875 1
0.875 0.875 0.875 1
0.875 0.875 0.875 1
0.875 0.875 0.875 1
0.875 0.875 0.875 1
0.875 0.875 0.875 1
0.875 0.875 0.875 1
0.875 0.875 0.875 1
0.875 0.875 0.875 1
0.875 0.875 0.875 1
0.875 0.875 0.875 1
0.875 0.875 0.875 1
0.875 0.875 0.875 1
0.875 0.875 0.875 1
0.875 0.875 0.875 1
0.875 0.875 0.875 1
0.875 0.875 0.875 1
0.875 0.875 0.875 1
0.875 0.875 0.875 1
0.875 0.875 0.875 1
0.875 0.875 0.875 1
0.875 0.875 0.875 1
0.875 0.875 0.875 1
0.875 0.875 0.875 1
0.875 0.875 0.875 1
0.875 0.875 0.875 1
0.875 0.875 0.875 1
0.875 0.875 0.875 1
0.875 0.875 0.875 1
0.875 0.875 0.875 1
0.875 0.875 0.875 1
0.875 0.875 0.875 1
0.875 0.875 0.875 1
0.875 0.875 0.875 1
0.875 0.875 0.875 1
0.875 0.875 0.875 1
0.875 0.875 0.875 1
0.875 0.875 0.875 1
0.875 0.875 0.875 1
0.875 0.875 0.875 1
0.875 0.875 0.875 1
0.875 0.875 0.875 1
0.875 0.875 0.875 1
0.875 0.875 0.875 1
0.875 0.875 0.875 1
0.875 0.875 0.875 1
0.875 0.875 0.875 1
0.875 0.875 0.875 1
0.875 0.875 0.875 1
0.875 0.875 0.875 1
0.875 0.875 0.875 1
0.875 0.875 0.875 1
0.875 0.875 0.875 1
0.875 0.875 0.875 1
0.875 0.875 0.875 1
0.875 0.875 0.875 1
0.875 0.875 0.875 1
0.875 0.875 0.875 1
0.875 0.875 0.875 1
0.875 0.875 0.875 1
0.875 0.875 0.875 1
0.875 0.875 0.875 1
0.875 0.875 0.875 1
0.875 0.875 0.875 1
0.875 0.875 0.875 1
0.875 0.875 0.875 1
0.875 0.875 0.875 1
0.875 0.875 0.875 1
0.875 0.875 0.875 1
0.875 0.875 0.875 1
0.875 0.875 0.875 1
0.875 0.875 0.875 1
0.875 0.875 0.875 1
0.875 0.875 0.875 1
0.875 0.875 0.875 1
0.875 0.875 0.875 1
0.875 0.875 0.875 1
0.875 0.875 0.875 1
0.875 0.875 0.875 1
0.875 0.875 0.875 1
0.875 0.875 0.875 1
0.875 0.875 0.875 1
0.875 0.875 0.875 1
0.875 0.875 0.875 1
0.875 0.875 0.875 1
0.875 0.875 0.875 1
0.875 0.875 0.875 1
0.875 0.875 0.875 1
0.875 0.875 0.875 1
0.875 0.875 0.875 1
0.875 0.875 0.875 1
0.875 0.875 0.875 1
0.875 0.875 0.875 1
0.875 0.875 0.875 1
0.875 0.875 0.875 1
0.875 0.875 0.875 1
0.875 0.875 0.875 1
0.875 0.875 0.875 1
0.875 0.875 0.875 1
0.875 0.875 0.875 1
0.875 0.875 0.875 1
0.875 0.875 0.875 1
0.875 0.875 0.875 1
0.875 0.875 0.875 1
0.875 0.875 0.875 1
0.875 0.875 0.875 1
0.875 0.875 0.875 1
0.875 0.875 0.875 1
0.875 0.875 0.875 1
0.875 0.875 0.875 1
0.875 0.875 0.875 1
0.875 0.875 0.875 1
0.875 0.875 0.875 1
0.875 0.875 0.875 1
0.875 0.875 0.875 1
0.875 0.875 0.875 1
0.875 0.875 0.875 1
0.875 0.875 0.875 1
0.875 0.875 0.875 1
0.875 0.875 0.875 1
0.875 0.875 0.875 1
0.875 0.875 0.875 1
0.875 0.875 0.875 1
0.875 0.875 0.875 1
0.875 0.875 0.875 1
0.875 0.875 0.875 1
0.875 0.875 0.875 1
0.875 0.875 0.875 1
0.875 0.875 0.875 1
0.875 0.875 0.875 1
0.875 0.875 0.875 1
0.875 0.875 0.875 1
0.875 0.875 0.875 1
0.875 0.875 0.875 1
0.875 0.875 0.875 1
0.875 0.875 0.875 1
0.875 0.875 0.875 1
0.875 0.875 0.875 1
0.875 0.875 0.875 1
0.875 0.875 0.875 1
0.875 0.875 0.875 1
0.875 0.875 0.875 1
0.875 0.875 0.875 1
0.875 0.875 0.875 1
0.875 0.875 0.875 1
0.875 0.875 0.875 1
0.875 0.875 0.875 1
0.875 0.875 0.875 1
0.875 0.875 0.875 1
0.875 0.875 0.875 1
0.875 0.875 0.875 1
0.875 0.875 0.875 1
0.875 0.875 0.875 1
0.875 0.875 0.875 1
0.875 0.875 0.875 1
0.875 0.875 0.875 1
0.875 0.875 0.875 1
0.875 0.875 0.875 1
0.875 0.875 0.875 1
0.875 0.875 0.875 1
0.875 0.875 0.875 1
0.875 0.875 0.875 1
0.875 0.875 0.875 1
0.875 0.875 0.875 1
0.875 0.875 0.875 1
0.875 0.875 0.875 1
0.875 0.875 0.875 1
0.875 0.875 0.875 1
0.875 0.875 0.875 1
0.875 0.875 0.875 1
0.875 0.875 0.875 1
0.875 0.875 0.875 1
0.875 0.875 0.875 1
0.875 0.875 0.875 1
0.875 0.875 0.875 1
0.875 0.875 0.875 1
0.875 0.875 0.875 1
0.875 0.875 0.875 1
0.875 0.875 0.875 1
0.875 0.875 0.875 1
0.875 0.875 0.875 1
0.875 0.875 0.875 1
0.875 0.875 0.875 1
0.875 0.875 0.875 1
0.875 0.875 0.875 1
0.875 0.875 0.875 1
0.875 0.875 0.875 1
0.875 0.875 0.875 1
0.875 0.875 0.875 1
0.875 0.875 0.875 1
0.875 0.875 0.875 1
0.875 0.875 0.875 1
0.875 0.875 0.875 1
0.875 0.875 0.875 1
0.875 0.875 0.875 1
0.875 0.875 0.875 1
0.875 0.875 0.875 1
0.875 0.875 0.875 1
0.875 0.875 0.875 1
0.875 0.875 0.875 1
0.875 0.875 0.875 1
0.875 0.875 0.875 1
0.875 0.875 0.875 1
0.875 0.875 0.875 1
0.875 0.875 0.875 1
0.875 0.875 0.875 1
0.875 0.875 0.875 1
0.875 0.875 0.875 1
0.875 0.875 0.875 1
0.875 0.875 0.875 1
0.875 0.875 0.875 1
0.875 0.875 0.875 1
0.875 0.875 0.875 1
0.875 0.875 0.875 1
0.875 0.875 0.875 1
0.875 0.875 0.875 1
0.875 0.875 0.875 1
0.875 0.875 0.875 1
0.875 0.875 0.875 1
0.875 0.875 0.875 1
0.875 0.875 0.875 1
0.875 0.875 0.875 1
0.875 0.875 0.875 1
0.875 0.875 0.875 1
0.875 0.875 0.875 1
0.875 0.875 0.875 1
0.875 0.875 0.875 1
0.875 0.875 0.875 1
0.875 0.875 0.875 1
0.875 0.875 0.875 1
0.875 0.875 0.875 1
0.875 0.875 0.875 1
0.875 0.875 0.875 1
0.875 0.875 0.875 1
0.875 0.875 0.875 1
0.875 0.875 0.875 1
0.875 0.875 0.875 1
0.875 0.875 0.875 1
0.875 0.875 0.875 1
0.875 0.875 0.875 1
0.875 0.875 0.875 1
0.875 0.875 0.875 1
0.875 0.875 0.875 1
0.875 0.875 0.875 1
0.875 0.875 0.875 1
0.875 0.875 0.875 1
0.875 0.875 0.875 1
0.875 0.875 0.875 1
0.875 0.875 0.875 1
0.875 0.875 0.875 1
0.875 0.875 0.875 1
0.875 0.875 0.875 1
0.875 0.875 0.875 1
0.875 0.875 0.875 1
0.875 0.875 0.875 1
0.875 0.875 0.875 1
0.875 0.875 0.875 1
0.875 0.875 0.875 1
0.875 0.875 0.875 1
0.875 0.875 0.875 1
0.875 0.875 0.875 1
0.875 0.875 0.875 1
0.875 0.875 0.875 1
0.875 0.875 0.875 1
0.875 0.875 0.875 1
0.875 0.875 0.875 1
0.875 0.875 0.875 1
0.875 0.875 0.875 1
0.875 0.875 0.875 1
0.875 0.875 0.875 1
0.875 0.875 0.875 1
0.875 0.875 0.875 1
0.875 0.875 0.875 1
0.875 0.875 0.875 1
0.875 0.875 0.875 1
0.875 0.875 0.875 1
0.875 0.875 0.875 1
0.875 0.875 0.875 1
0.875 0.875 0.875 1
0.875 0.875 0.875 1
0.875 0.875 0.875 1
0.875 0.875 0.875 1
0.875 0.875 0.875 1
0.875 0.875 0.875 1
0.875 0.875 0.875 1
0.875 0.875 0.875 1
0.875 0.875 0.875 1
0.875 0.875 0.875 1
0.875 0.875 0.875 1
0.875 0.875 0.875 1
0.875 0.875 0.875 1
0.875 0.875 0.875 1
0.875 0.875 0.875 1
0.875 0.875 0.875 1
0.875 0.875 0.875 1
0.875 0.875 0.875 1
0.875 0.875 0.875 1
0.875 0.875 0.875 1
0.875 0.875 0.875 1
0.875 0.875 0.875 1
0.875 0.875 0.875 1
0.875 0.875 0.875 1
0.875 0.875 0.875 1
0.875 0.875 0.875 1
0.875 0.875 0.875 1
0.875 0.875 0.875 1
0.875 0.875 0.875 1
0.875 0.875 0.875 1
0.875 0.875 0.875 1
0.875 0.875 0.875 1
0.875 0.875 0.875 1
0.875 0.875 0.875 1
0.875 0.875 0.875 1
0.875 0.875 0.875 1
0.875 0.875 0.875 1
0.875 0.875 0.875 1
0.875 0.875 0.875 1
0.875 0.875 0.875 1
0.875 0.875 0.875 1
0.875 0.875 0.875 1
0.875 0.875 0.875 1
0.875 0.875 0.875 1
0.875 0.875 0.875 1
0.875 0.875 0.875 1
0.875 0.875 0.875 1
0.875 0.875 0.875 1
0.875 0.875 0.875 1
0.875 0.875 0.875 1
0.875 0.875 0.875 1
0.875 0.875 0.875 1
0.875 0.875 0.875 1
0.875 0.875 0.875 1
0.875 0.875 0.875 1
0.875 0.875 0.875 1
0.875 0.875 0.875 1
0.875 0.875 0.875 1
0.875 0.875 0.875 1
0.875 0.875 0.875 1
0.875 0.875 0.875 1
0.875 0.875 0.875 1
0.875 0.875 0.875 1
0.875 0.875 0.875 1
0.875 0.875 0.875 1
0.875 0.875 0.875 1
0.875 0.875 0.875 1
0.875 0.875 0.875 1
0.875 0.875 0.875 1
0.875 0.875 0.875 1
0.875 0.875 0.875 1
0.875 0.875 0.875 1
0.875 0.875 0.875 1
0.875 0.875 0.875 1
0.875 0.875 0.875 1
0.875 0.875 0.875 1
0.875 0.875 0.875 1
0.875 0.875 0.875 1
0.875 0.875 0.875 1
0.875 0.875 0.875 1
0.875 0.875 0.875 1
0.875 0.875 0.875 1
0.875 0.875 0.875 1
0.875 0.875 0.875 1
0.875 0.875 0.875 1
0.875 0.875 0.875 1
0.875 0.875 0.875 1
0.875 0.875 0.875 1
0.875 0.875 0.875 1
0.875 0.875 0.875 1
0.875 0.875 0.875 1
0.875 0.875 0.875 1
0.875 0.875 0.875 1
0.875 0.875 0.875 1
0.875 0.875 0.875 1
0.875 0.875 0.875 1
0.875 0.875 0.875 1
0.875 0.875 0.875 1
0.875 0.875 0.875 1
0.875 0.875 0.875 1
0.875 0.875 0.875 1
0.875 0.875 0.875 1
0.875 0.875 0.875 1
0.875 0.875 0.875 1
0.875 0.875 0.875 1
0.875 0.875 0.875 1
0.875 0.875 0.875 1
0.875 0.875 0.875 1
0.875 0.875 0.875 1
0.875 0.875 0.875 1
0.875 0.875 0.875 1
0.875 0.875 0.875 1
0.875 0.875 0.875 1
0.875 0.875 0.875 1
0.875 0.875 0.875 1
0.875 0.875 0.875 1
0.875 0.875 0.875 1
0.875 0.875 0.875 1
0.875 0.875 0.875 1
0.875 0.875 0.875 1
0.875 0.875 0.875 1
0.875 0.875 0.875 1
0.875 0.875 0.875 1
0.875 0.875 0.875 1
0.875 0.875 0.875 1
0.875 0.875 0.875 1
0.875 0.875 0.875 1
0.875 0.875 0.875 1
0.875 0.875 0.875 1
0.875 0.875 0.875 1
0.875 0.875 0.875 1
0.875 0.875 0.875 1
0.875 0.875 0.875 1
0.875 0.875 0.875 1
0.875 0.875 0.875 1
0.875 0.875 0.875 1
0.875 0.875 0.875 1
0.875 0.875 0.875 1
0.875 0.875 0.875 1
0.875 0.875 0.875 1
0.875 0.875 0.875 1
0.875 0.875 0.875 1
0.875 0.875 0.875 1
0.875 0.875 0.875 1
0.875 0.875 0.875 1
0.875 0.875 0.875 1
0.875 0.875 0.875 1
0.875 0.875 0.875 1
0.875 0.875 0.875 1
0.875 0.875 0.875 1
0.875 0.875 0.875 1
0.875 0.875 0.875 1
0.875 0.875 0.875 1
0.875 0.875 0.875 1
0.875 0.875 0.875 1
0.875 0.875 0.875 1
0.875 0.875 0.875 1
0.875 0.875 0.875 1
0.875 0.875 0.875 1
0.875 0.875 0.875 1
0.875 0.875 0.875 1
0.875 0.875 0.875 1
0.875 0.875 0.875 1
0.875 0.875 0.875 1
0.875 0.875 0.875 1
0.875 0.875 0.875 1
0.875 0.875 0.875 1
0.875 0.875 0.875 1
0.875 0.875 0.875 1
0.875 0.875 0.875 1
0.875 0.875 0.875 1
0.875 0.875 0.875 1
0.875 0.875 0.875 1
0.875 0.875 0.875 1
0.875 0.875 0.875 1
0.875 0.875 0.875 1
0.875 0.875 0.875 1
0.875 0.875 0.875 1
0.875 0.875 0.875 1
0.875 0.875 0.875 1
0.875 0.875 0.875 1
0.875 0.875 0.875 1
0.875 0.875 0.875 1
0.875 0.875 0.875 1
0.875 0.875 0.875 1
0.875 0.875 0.875 1
0.875 0.875 0.875 1
0.875 0.875 0.875 1
0.875 0.875 0.875 1
0.875 0.875 0.875 1
0.875 0.875 0.875 1
0.875 0.875 0.875 1
0.875 0.875 0.875 1
0.875 0.875 0.875 1
0.875 0.875 0.875 1
0.875 0.875 0.875 1
0.875 0.875 0.875 1
0.875 0.875 0.875 1
0.875 0.875 0.875 1
0.875 0.875 0.875 1
0.875 0.875 0.875 1
0.875 0.875 0.875 1
0.875 0.875 0.875 1
0.875 0.875 0.875 1
0.875 0.875 0.875 1
0.875 0.875 0.875 1
0.875 0.875 0.875 1
0.875 0.875 0.875 1
0.875 0.875 0.875 1
0.875 0.875 0.875 1
0.875 0.875 0.875 1
0.875 0.875 0.875 1
0.875 0.875 0.875 1
0.875 0.875 0.875 1
0.875 0.875 0.875 1
0.875 0.875 0.875 1
0.875 0.875 0.875 1
0.875 0.875 0.875 1
0.875 0.875 0.875 1
0.875 0.875 0.875 1
0.875 0.875 0.875 1
0.875 0.875 0.875 1
0.875 0.875 0.875 1
0.875 0.875 0.875 1
0.875 0.875 0.875 1
0.875 0.875 0.875 1
0.875 0.875 0.875 1
0.875 0.875 0.875 1
0.875 0.875 0.875 1
0.875 0.875 0.875 1
0.875 0.875 0.875 1
0.875 0.875 0.875 1
0.875 0.875 0.875 1
0.875 0.875 0.875 1
0.875 0.875 0.875 1
0.875 0.875 0.875 1
0.875 0.875 0.875 1
0.875 0.875 0.875 1
0.875 0.875 0.875 1
0.875 0.875 0.875 1
0.875 0.875 0.875 1
0.875 0.875 0.875 1
0.875 0.875 0.875 1
0.875 0.875 0.875 1
0.875 0.875 0.875 1
0.875 0.875 0.875 1
0.875 0.875 0.875 1
0.875 0.875 0.875 1
0.875 0.875 0.875 1
0.875 0.875 0.875 1
0.875 0.875 0.875 1
0.875 0.875 0.875 1
0.875 0.875 0.875 1
0.875 0.875 0.875 1
0.875 0.875 0.875 1
0.875 0.875 0.875 1
0.875 0.875 0.875 1
0.875 0.875 0.875 1
0.875 0.875 0.875 1
0.875 0.875 0.875 1
0.875 0.875 0.875 1
0.875 0.875 0.875 1
0.875 0.875 0.875 1
0.875 0.875 0.875 1
0.875 0.875 0.875 1
0.875 0.875 0.875 1
0.875 0.875 0.875 1
0.875 0.875 0.875 1
0.875 0.875 0.875 1
0.875 0.875 0.875 1
0.875 0.875 0.875 1
0.875 0.875 0.875 1
0.875 0.875 0.875 1
0.875 0.875 0.875 1
0.875 0.875 0.875 1
0.875 0.875 0.875 1
0.875 0.875 0.875 1
0.875 0.875 0.875 1
0.875 0.875 0.875 1
0.875 0.875 0.875 1
0.875 0.875 0.875 1
0.875 0.875 0.875 1
0.875 0.875 0.875 1
0.875 0.875 0.875 1
0.875 0.875 0.875 1
0.875 0.875 0.875 1
0.875 0.875 0.875 1
0.875 0.875 0.875 1
0.875 0.875 0.875 1
0.875 0.875 0.875 1
0.875 0.875 0.875 1
0.875 0.875 0.875 1
0.875 0.875 0.875 1
0.875 0.875 0.875 1
0.875 0.875 0.875 1
0.875 0.875 0.875 1
0.875 0.875 0.875 1
0.875 0.875 0.875 1
0.875 0.875 0.875 1
0.875 0.875 0.875 1
0.875 0.875 0.875 1
0.875 0.875 0.875 1
0.875 0.875 0.875 1
0.875 0.875 0.875 1
0.875 0.875 0.875 1
0.875 0.875 0.875 1
0.875 0.875 0.875 1
0.875 0.875 0.875 1
0.875 0.875 0.875 1
0.875 0.875 0.875 1
0.875 0.875 0.875 1
0.875 0.875 0.875 1
0.875 0.875 0.875 1
0.875 0.875 0.875 1
0.875 0.875 0.875 1
0.875 0.875 0.875 1
0.875 0.875 0.875 1
0.875 0.875 0.875 1
0.875 0.875 0.875 1
0.875 0.875 0.875 1
0.875 0.875 0.875 1
0.875 0.875 0.875 1
0.875 0.875 0.875 1
0.875 0.875 0.875 1
0.875 0.875 0.875 1
0.875 0.875 0.875 1
0.875 0.875 0.875 1
0.875 0.875 0.875 1
0.875 0.875 0.875 1
0.875 0.875 0.875 1
0.875 0.875 0.875 1
0.875 0.875 0.875 1
0.875 0.875 0.875 1
0.875 0.875 0.875 1
0.875 0.875 0.875 1
0.875 0.875 0.875 1
0.875 0.875 0.875 1
0.875 0.875 0.875 1
0.875 0.875 0.875 1
0.875 0.875 0.875 1
0.875 0.875 0.875 1
0.875 0.875 0.875 1
0.875 0.875 0.875 1
0.875 0.875 0.875 1
0.875 0.875 0.875 1
0.875 0.875 0.875 1
0.875 0.875 0.875 1
0.875 0.875 0.875 1
0.875 0.875 0.875 1
0.875 0.875 0.875 1
0.875 0.875 0.875 1
0.875 0.875 0.875 1
0.875 0.875 0.875 1
0.875 0.875 0.875 1
0.875 0.875 0.875 1
0.875 0.875 0.875 1
0.875 0.875 0.875 1
0.875 0.875 0.875 1
0.875 0.875 0.875 1
0.875 0.875 0.875 1
0.875 0.875 0.875 1
0.875 0.875 0.875 1
0.875 0.875 0.875 1
0.875 0.875 0.875 1
0.875 0.875 0.875 1
0.875 0.875 0.875 1
0.875 0.875 0.875 1
0.875 0.875 0.875 1
0.875 0.875 0.875 1
0.875 0.875 0.875 1
0.875 0.875 0.875 1
0.875 0.875 0.875 1
0.875 0.875 0.875 1
0.875 0.875 0.875 1
0.875 0.875 0.875 1
0.875 0.875 0.875 1
0.875 0.875 0.875 1
0.875 0.875 0.875 1
0.875 0.875 0.875 1
0.875 0.875 0.875 1
0.875 0.875 0.875 1
0.875 0.875 0.875 1
0.875 0.875 0.875 1
0.875 0.875 0.875 1
0.875 0.875 0.875 1
0.875 0.875 0.875 1
0.875 0.875 0.875 1
0.875 0.875 0.875 1
0.875 0.875 0.875 1
0.875 0.875 0.875 1
0.875 0.875 0.875 1
0.875 0.875 0.875 1
0.875 0.875 0.875 1
0.875 0.875 0.875 1
0.875 0.875 0.875 1
0.875 0.875 0.875 1
0.875 0.875 0.875 1
0.875 0.875 0.875 1
0.875 0.875 0.875 1
0.875 0.875 0.875 1
0.875 0.875 0.875 1
0.875 0.875 0.875 1
0.875 0.875 0.875 1
0.875 0.875 0.875 1
0.875 0.875 0.875 1
0.875 0.875 0.875 1
0.875 0.875 0.875 1
0.875 0.875 0.875 1
0.875 0.875 0.875 1
0.875 0.875 0.875 1
0.875 0.875 0.875 1
0.875 0.875 0.875 1
0.875 0.875 0.875 1
0.875 0.875 0.875 1
0.875 0.875 0.875 1
0.875 0.875 0.875 1
0.875 0.875 0.875 1
0.875 0.875 0.875 1
0.875 0.875 0.875 1
0.875 0.875 0.875 1
0.875 0.875 0.875 1
0.875 0.875 0.875 1
0.875 0.875 0.875 1
0.875 0.875 0.875 1
0.875 0.875 0.875 1
0.875 0.875 0.875 1
0.875 0.875 0.875 1
0.875 0.875 0.875 1
0.875 0.875 0.875 1
0.875 0.875 0.875 1
0.875 0.875 0.875 1
0.875 0.875 0.875 1
0.875 0.875 0.875 1
0.875 0.875 0.875 1
0.875 0.875 0.875 1
0.875 0.875 0.875 1
0.875 0.875 0.875 1
0.875 0.875 0.875 1
0.875 0.875 0.875 1
0.875 0.875 0.875 1
0.875 0.875 0.875 1
0.875 0.875 0.875 1
0.875 0.875 0.875 1
0.875 0.875 0.875 1
0.875 0.875 0.875 1
0.875 0.875 0.875 1
0.875 0.875 0.875 1
0.875 0.875 0.875 1
0.875 0.875 0.875 1
0.875 0.875 0.875 1
0.875 0.875 0.875 1
0.875 0.875 0.875 1
0.875 0.875 0.875 1
0.875 0.875 0.875 1
0.875 0.875 0.875 1
0.875 0.875 0.875 1
0.875 0.875 0.875 1
0.875 0.875 0.875 1
0.875 0.875 0.875 1
0.875 0.875 0.875 1
0.875 0.875 0.875 1
0.875 0.875 0.875 1
0.875 0.875 0.875 1
0.875 0.875 0.875 1
0.875 0.875 0.875 1
0.875 0.875 0.875 1
0.875 0.875 0.875 1
0.875 0.875 0.875 1
0.875 0.875 0.875 1
0.875 0.875 0.875 1
0.875 0.875 0.875 1
0.875 0.875 0.875 1
0.875 0.875 0.875 1
0.875 0.875 0.875 1
0.875 0.875 0.875 1
0.875 0.875 0.875 1
0.875 0.875 0.875 1
0.875 0.875 0.875 1
0.875 0.875 0.875 1
0.875 0.875 0.875 1
0.875 0.875 0.875 1
0.875 0.875 0.875 1
0.875 0.875 0.875 1
0.875 0.875 0.875 1
0.875 0.875 0.875 1
0.875 0.875 0.875 1
0.875 0.875 0.875 1
0.875 0.875 0.875 1
0.875 0.875 0.875 1
0.875 0.875 0.875 1
0.875 0.875 0.875 1
0.875 0.875 0.875 1
0.875 0.875 0.875 1
0.875 0.875 0.875 1
0.875 0.875 0.875 1
0.875 0.875 0.875 1
0.875 0.875 0.875 1
0.875 0.875 0.875 1
0.875 0.875 0.875 1
0.875 0.875 0.875 1
0.875 0.875 0.875 1
0.875 0.875 0.875 1
0.875 0.875 0.875 1
0.875 0.875 0.875 1
0.875 0.875 0.875 1
0.875 0.875 0.875 1
0.875 0.875 0.875 1
0.875 0.875 0.875 1
0.875 0.875 0.875 1
0.875 0.875 0.875 1
0.875 0.875 0.875 1
0.875 0.875 0.875 1
0.875 0.875 0.875 1
0.875 0.875 0.875 1
0.875 0.875 0.875 1
0.875 0.875 0.875 1
0.875 0.875 0.875 1
0.875 0.875 0.875 1
0.875 0.875 0.875 1
0.875 0.875 0.875 1
0.875 0.875 0.875 1
0.875 0.875 0.875 1
0.875 0.875 0.875 1
0.875 0.875 0.875 1
0.875 0.875 0.875 1
0.875 0.875 0.875 1
0.875 0.875 0.875 1
0.875 0.875 0.875 1
0.875 0.875 0.875 1
0.875 0.875 0.875 1
0.875 0.875 0.875 1
0.875 0.875 0.875 1
0.875 0.875 0.875 1
0.875 0.875 0.875 1
0.875 0.875 0.875 1
0.875 0.875 0.875 1
0.875 0.875 0.875 1
0.875 0.875 0.875 1
0.875 0.875 0.875 1
0.875 0.875 0.875 1
0.875 0.875 0.875 1
0.875 0.875 0.875 1
0.875 0.875 0.875 1
0.875 0.875 0.875 1
0.875 0.875 0.875 1
0.875 0.875 0.875 1
0.875 0.875 0.875 1
0.875 0.875 0.875 1
0.875 0.875 0.875 1
0.875 0.875 0.875 1
0.875 0.875 0.875 1
0.875 0.875 0.875 1
0.875 0.875 0.875 1
0.875 0.875 0.875 1
0.875 0.875 0.875 1
0.875 0.875 0.875 1
0.875 0.875 0.875 1
0.875 0.875 0.875 1
0.875 0.875 0.875 1
0.875 0.875 0.875 1
0.875 0.875 0.875 1
0.875 0.875 0.875 1
0.875 0.875 0.875 1
0.875 0.875 0.875 1
0.875 0.875 0.875 1
0.875 0.875 0.875 1
0.875 0.875 0.875 1
0.875 0.875 0.875 1
0.875 0.875 0.875 1
0.875 0.875 0.875 1
0.875 0.875 0.875 1
0.875 0.875 0.875 1
0.875 0.875 0.875 1
0.875 0.875 0.875 1
0.875 0.875 0.875 1
0.875 0.875 0.875 1
0.875 0.875 0.875 1
0.875 0.875 0.875 1
0.875 0.875 0.875 1
0.875 0.875 0.875 1
0.875 0.875 0.875 1
0.875 0.875 0.875 1
0.875 0.875 0.875 1
0.875 0.875 0.875 1
0.875 0.875 0.875 1
0.875 0.875 0.875 1
0.875 0.875 0.875 1
0.875 0.875 0.875 1
0.875 0.875 0.875 1
0.875 0.875 0.875 1
0.875 0.875 0.875 1
0.875 0.875 0.875 1
0.875 0.875 0.875 1
0.875 0.875 0.875 1
0.875 0.875 0.875 1
0.875 0.875 0.875 1
0.875 0.875 0.875 1
0.875 0.875 0.875 1
0.875 0.875 0.875 1
0.875 0.875 0.875 1
0.875 0.875 0.875 1
0.875 0.875 0.875 1
0.875 0.875 0.875 1
0.875 0.875 0.875 1
0.875 0.875 0.875 1
0.875 0.875 0.875 1
0.875 0.875 0.875 1
0.875 0.875 0.875 1
0.875 0.875 0.875 1
0.875 0.875 0.875 1