# vtk DataFile Version 3.0
Gocad TSurf to VTK
ASCII
DATASET POLYDATA
POINTS 3466 float
21537948.375 4562650.668 -2500.000
21537981.938 4562628.277 -2000.000
21537940.328 4562641.207 -2500.000
21537965.844 4562609.359 -2000.000
21537914.813 4562673.059 -3000.000
21537996.719 4562646.695 -2000.000
21538022.891 4562615.094 -1500.000
21537970.563 4562678.293 -2500.000
21538012.828 4562665.609 -2000.000
21537944.406 4562709.891 -3000.000
21537978.625 4562687.750 -2500.000
21537872.438 4562712.727 -3500.000
21537865.719 4562702.527 -3500.000
21537894.625 4562740.352 -3500.000
21537844.844 4562770.809 -4000.000
21537901.344 4562750.547 -3500.000
21537973.984 4562746.723 -3000.000
21537923.516 4562778.172 -3500.000
21538000.797 4562715.375 -2500.000
21538008.844 4562724.836 -2500.000
21538027.625 4562684.027 -2000.000
21538043.719 4562702.945 -2000.000
21538054.438 4562652.680 -1500.000
21538078.594 4562681.059 -1500.000
21538047.031 4562643.473 -1500.000
21538081.250 4562621.332 -1000.000
21538049.047 4562583.496 -1000.000
21538015.484 4562605.887 -1500.000
21538079.828 4562567.742 -677.319
21538103.984 4562596.121 -677.319
21538071.906 4562558.594 -677.604
21538094.781 4562533.695 -355.208
21538047.781 4562530.215 -677.604
21538078.688 4562514.773 -355.208
21538016.859 4562545.656 -1000.000
21538039.859 4562521.066 -677.888
21537991.344 4562577.508 -1500.000
21537983.953 4562568.297 -1500.000
21537951.031 4562590.941 -2000.000
21537918.125 4562613.586 -2500.000
21537910.078 4562604.125 -2500.000
21537885.219 4562636.227 -3000.000
21537843.531 4562674.902 -3500.000
21537836.813 4562664.707 -3500.000
21537816.625 4562731.996 -4000.000
21537801.828 4562713.578 -4000.000
21537830.047 4562752.391 -4000.000
21537767.531 4562761.465 -4500.000
21537787.656 4562792.059 -4500.000
21537795.063 4562801.266 -4500.000
21537718.438 4562790.934 -5000.000
21537760.125 4562752.258 -4500.000
21537745.281 4562831.727 -5000.000
21537815.188 4562831.859 -4500.000
21537858.266 4562791.203 -4000.000
21537772.125 4562872.516 -5000.000
21537822.594 4562841.066 -4500.000
21537842.719 4562871.660 -4500.000
21537886.469 4562830.016 -4000.000
21537798.953 4562913.305 -5000.000
21537850.109 4562880.867 -4500.000
21537870.234 4562911.461 -4500.000
21537914.688 4562868.828 -4000.000
21537825.781 4562954.098 -5000.000
21537877.625 4562920.672 -4500.000
21537897.750 4562951.262 -4500.000
21537942.891 4562907.637 -4000.000
21537852.625 4562994.887 -5000.000
21537905.156 4562960.469 -4500.000
21537912.547 4562969.680 -4500.000
21537957.688 4562926.055 -4000.000
21537871.938 4563031.117 -5000.000
21537927.031 4562996.852 -4500.000
21537972.469 4562944.469 -4000.000
21537941.531 4563024.020 -4500.000
21537991.797 4562980.695 -4000.000
21537891.266 4563067.344 -5000.000
21537948.938 4563033.227 -4500.000
21537963.422 4563060.398 -4500.000
21538016.250 4563017.227 -4000.000
21537910.594 4563103.570 -5000.000
21537970.813 4563069.605 -4500.000
21537985.313 4563096.781 -4500.000
21538040.703 4563053.758 -4000.000
21537929.906 4563139.801 -5000.000
21537992.703 4563105.988 -4500.000
21538012.625 4563136.781 -4500.000
21538068.781 4563092.703 -4000.000
21537956.469 4563180.859 -5000.000
21538018.656 4563146.441 -4500.000
21538080.859 4563112.023 -4000.000
21538038.594 4563177.234 -4500.000
21538094.141 4563132.555 -4000.000
21537983.031 4563221.918 -5000.000
21538044.625 4563186.898 -4500.000
21538106.219 4563151.875 -4000.000
21538064.563 4563217.691 -4500.000
21538119.500 4563172.406 -4000.000
21538009.609 4563262.977 -5000.000
21538070.594 4563227.352 -4500.000
21538131.578 4563191.727 -4000.000
21538076.625 4563237.012 -4500.000
21538036.172 4563304.035 -5000.000
21538096.563 4563267.805 -4500.000
21538143.656 4563211.047 -4000.000
21538064.078 4563342.680 -5000.000
21538117.484 4563296.789 -4500.000
21538156.938 4563231.578 -4000.000
21538119.906 4563294.375 -4500.000
21538170.891 4563250.898 -4000.000
21538127.547 4563304.035 -4500.000
21538175.719 4563246.070 -4000.000
21538148.469 4563333.016 -4500.000
21538204.969 4563284.711 -4000.000
21538091.984 4563381.320 -5000.000
21538156.125 4563342.676 -4500.000
21538119.906 4563419.965 -5000.000
21538177.063 4563371.660 -4500.000
21538220.266 4563304.031 -4000.000
21538184.719 4563381.320 -4500.000
21538234.219 4563323.355 -4000.000
21538147.813 4563458.609 -5000.000
21538205.641 4563410.305 -4500.000
21538249.516 4563342.680 -4000.000
21538213.281 4563419.965 -4500.000
21538263.469 4563362.000 -4000.000
21538175.719 4563497.250 -5000.000
21538234.219 4563448.945 -4500.000
21538278.766 4563381.320 -4000.000
21538241.875 4563458.605 -4500.000
21538292.719 4563400.641 -4000.000
21538203.625 4563535.895 -5000.000
21538262.797 4563487.590 -4500.000
21538308.016 4563419.961 -4000.000
21538270.438 4563497.250 -4500.000
21538321.969 4563439.285 -4000.000
21538231.547 4563574.539 -5000.000
21538291.391 4563526.234 -4500.000
21538337.266 4563458.609 -4000.000
21538312.313 4563555.215 -4500.000
21538365.188 4563497.250 -4000.000
21538259.453 4563613.180 -5000.000
21538320.594 4563563.840 -4500.000
21538341.531 4563592.824 -4500.000
21538395.688 4563533.824 -4000.000
21538287.359 4563651.824 -5000.000
21538326.000 4563679.426 -5000.000
21538370.500 4563613.523 -4500.000
21538378.781 4563622.148 -4500.000
21538431.578 4563564.875 -4000.000
21538364.641 4563707.027 -5000.000
21538407.766 4563642.852 -4500.000
21538416.047 4563651.477 -4500.000
21538467.469 4563595.930 -4000.000
21538403.281 4563734.629 -5000.000
21538445.031 4563672.180 -4500.000
21538453.313 4563680.805 -4500.000
21538503.344 4563626.980 -4000.000
21538441.938 4563762.234 -5000.000
21538482.297 4563701.508 -4500.000
21538490.578 4563710.133 -4500.000
21538539.219 4563658.035 -4000.000
21538480.578 4563789.836 -5000.000
21538519.563 4563730.836 -4500.000
21538527.844 4563739.461 -4500.000
21538575.109 4563689.086 -4000.000
21538519.219 4563817.438 -5000.000
21538556.828 4563760.164 -4500.000
21538565.109 4563768.789 -4500.000
21538611.000 4563720.141 -4000.000
21538557.859 4563845.039 -5000.000
21538594.094 4563789.488 -4500.000
21538600.375 4563862.430 -5000.000
21538625.969 4563802.531 -4500.000
21538630.313 4563733.938 -4000.000
21538657.844 4563815.574 -4500.000
21538672.813 4563751.328 -4000.000
21538642.875 4563879.820 -5000.000
21538667.906 4563818.391 -4500.000
21538699.797 4563831.434 -4500.000
21538714.203 4563765.656 -4000.000
21538685.391 4563897.207 -5000.000
21538709.859 4563834.250 -4500.000
21538741.734 4563847.293 -4500.000
21538755.594 4563779.992 -4000.000
21538727.891 4563914.598 -5000.000
21538751.797 4563850.113 -4500.000
21538783.688 4563863.156 -4500.000
21538796.969 4563794.320 -4000.000
21538770.406 4563931.988 -5000.000
21538818.469 4563867.504 -4500.000
21538820.156 4563797.219 -4000.000
21538816.781 4563937.785 -5000.000
21538828.531 4563870.320 -4500.000
21538840.281 4563802.855 -4000.000
21538863.313 4563874.668 -4500.000
21538863.469 4563805.754 -4000.000
21538863.156 4563943.582 -5000.000
21538873.375 4563877.484 -4500.000
21538883.594 4563811.391 -4000.000
21538908.156 4563881.832 -4500.000
21538906.781 4563814.289 -4000.000
21538909.516 4563949.379 -5000.000
21538918.219 4563884.652 -4500.000
21538926.906 4563819.922 -4000.000
21538953.000 4563889.000 -4500.000
21538950.094 4563822.820 -4000.000
21538955.891 4563955.176 -5000.000
21538987.781 4563893.348 -4500.000
21538973.281 4563825.719 -4000.000
21539002.266 4563960.973 -5000.000
21539022.781 4563886.102 -4500.000
21538996.625 4563820.891 -4000.000
21539048.953 4563951.313 -5000.000
21539033.406 4563883.203 -4500.000
21539017.875 4563815.094 -4000.000
21539068.438 4563875.957 -4500.000
21539041.219 4563810.266 -4000.000
21539095.656 4563941.652 -5000.000
21539079.063 4563873.059 -4500.000
21539062.484 4563804.469 -4000.000
21539114.094 4563865.813 -4500.000
21539085.828 4563799.633 -4000.000
21539142.344 4563931.988 -5000.000
21539124.719 4563862.914 -4500.000
21539107.078 4563793.840 -4000.000
21539159.719 4563855.668 -4500.000
21539130.422 4563789.008 -4000.000
21539189.031 4563922.328 -5000.000
21539170.359 4563852.770 -4500.000
21539151.688 4563783.211 -4000.000
21539205.375 4563845.523 -4500.000
21539175.031 4563778.383 -4000.000
21539235.734 4563912.668 -5000.000
21539216.000 4563842.625 -4500.000
21539196.281 4563772.586 -4000.000
21539251.031 4563835.383 -4500.000
21539219.625 4563767.758 -4000.000
21539282.422 4563903.008 -5000.000
21539317.438 4563875.234 -5000.000
21539277.281 4563814.551 -4500.000
21539352.469 4563847.457 -5000.000
21539303.563 4563793.719 -4500.000
21539237.125 4563753.867 -4000.000
21539329.813 4563772.891 -4500.000
21539272.156 4563726.094 -4000.000
21539387.484 4563819.684 -5000.000
21539339.000 4563768.059 -4500.000
21539290.516 4563716.434 -4000.000
21539348.172 4563763.227 -4500.000
21539308.875 4563706.773 -4000.000
21539374.438 4563742.395 -4500.000
21539326.375 4563692.883 -4000.000
21539422.500 4563791.906 -5000.000
21539383.625 4563737.563 -4500.000
21539344.734 4563683.223 -4000.000
21539409.891 4563716.734 -4500.000
21539362.250 4563669.336 -4000.000
21539457.531 4563764.133 -5000.000
21539419.063 4563711.902 -4500.000
21539380.594 4563659.672 -4000.000
21539445.328 4563691.074 -4500.000
21539398.109 4563645.789 -4000.000
21539492.547 4563736.359 -5000.000
21539454.500 4563686.242 -4500.000
21539416.469 4563636.125 -4000.000
21539480.781 4563665.410 -4500.000
21539433.984 4563622.238 -4000.000
21539527.578 4563708.582 -5000.000
21539507.047 4563644.578 -4500.000
21539451.500 4563608.352 -4000.000
21539562.594 4563680.809 -5000.000
21539515.500 4563636.125 -4500.000
21539468.406 4563591.445 -4000.000
21539542.672 4563610.766 -4500.000
21539486.516 4563574.539 -4000.000
21539598.828 4563646.996 -5000.000
21539551.125 4563602.313 -4500.000
21539503.422 4563557.633 -4000.000
21539578.281 4563576.953 -4500.000
21539521.531 4563540.727 -4000.000
21539635.047 4563613.184 -5000.000
21539586.750 4563568.500 -4500.000
[...]
POINT_DATA 3466
COLOR_SCALARS GocadColor 4
0.77647 0.65098 0.274509 1
0.77647 0.65098 0.274509 1
0.77647 0.65098 0.274509 1
0.77647 0.65098 0.274509 1
0.77647 0.65098 0.274509 1
0.77647 0.65098 0.274509 1
0.77647 0.65098 0.274509 1
0.77647 0.65098 0.274509 1
0.77647 0.65098 0.274509 1
0.77647 0.65098 0.274509 1
0.77647 0.65098 0.274509 1
0.77647 0.65098 0.274509 1
0.77647 0.65098 0.274509 1
0.77647 0.65098 0.274509 1
0.77647 0.65098 0.274509 1
0.77647 0.65098 0.274509 1
0.77647 0.65098 0.274509 1
0.77647 0.65098 0.274509 1
0.77647 0.65098 0.274509 1
0.77647 0.65098 0.274509 1
0.77647 0.65098 0.274509 1
0.77647 0.65098 0.274509 1
0.77647 0.65098 0.274509 1
0.77647 0.65098 0.274509 1
0.77647 0.65098 0.274509 1
0.77647 0.65098 0.274509 1
0.77647 0.65098 0.274509 1
0.77647 0.65098 0.274509 1
0.77647 0.65098 0.274509 1
0.77647 0.65098 0.274509 1
0.77647 0.65098 0.274509 1
0.77647 0.65098 0.274509 1
0.77647 0.65098 0.274509 1
0.77647 0.65098 0.274509 1
0.77647 0.65098 0.274509 1
0.77647 0.65098 0.274509 1
0.77647 0.65098 0.274509 1
0.77647 0.65098 0.274509 1
0.77647 0.65098 0.274509 1
0.77647 0.65098 0.274509 1
0.77647 0.65098 0.274509 1
0.77647 0.65098 0.274509 1
0.77647 0.65098 0.274509 1
0.77647 0.65098 0.274509 1
0.77647 0.65098 0.274509 1
0.77647 0.65098 0.274509 1
0.77647 0.65098 0.274509 1
0.77647 0.65098 0.274509 1
0.77647 0.65098 0.274509 1
0.77647 0.65098 0.274509 1
0.77647 0.65098 0.274509 1
0.77647 0.65098 0.274509 1
0.77647 0.65098 0.274509 1
0.77647 0.65098 0.274509 1
0.77647 0.65098 0.274509 1
0.77647 0.65098 0.274509 1
0.77647 0.65098 0.274509 1
0.77647 0.65098 0.274509 1
0.77647 0.65098 0.274509 1
0.77647 0.65098 0.274509 1
0.77647 0.65098 0.274509 1
0.77647 0.65098 0.274509 1
0.77647 0.65098 0.274509 1
0.77647 0.65098 0.274509 1
0.77647 0.65098 0.274509 1
0.77647 0.65098 0.274509 1
0.77647 0.65098 0.274509 1
0.77647 0.65098 0.274509 1
0.77647 0.65098 0.274509 1
0.77647 0.65098 0.274509 1
0.77647 0.65098 0.274509 1
0.77647 0.65098 0.274509 1
0.77647 0.65098 0.274509 1
0.77647 0.65098 0.274509 1
0.77647 0.65098 0.274509 1
0.77647 0.65098 0.274509 1
0.77647 0.65098 0.274509 1
0.77647 0.65098 0.274509 1
0.77647 0.65098 0.274509 1
0.77647 0.65098 0.274509 1
0.77647 0.65098 0.274509 1
0.77647 0.65098 0.274509 1
0.77647 0.65098 0.274509 1
0.77647 0.65098 0.274509 1
0.77647 0.65098 0.274509 1
0.77647 0.65098 0.274509 1
0.77647 0.65098 0.274509 1
0.77647 0.65098 0.274509 1
0.77647 0.65098 0.274509 1
0.77647 0.65098 0.274509 1
0.77647 0.65098 0.274509 1
0.77647 0.65098 0.274509 1
0.77647 0.65098 0.274509 1
0.77647 0.65098 0.274509 1
0.77647 0.65098 0.274509 1
0.77647 0.65098 0.274509 1
0.77647 0.65098 0.274509 1
0.77647 0.65098 0.274509 1
0.77647 0.65098 0.274509 1
0.77647 0.65098 0.274509 1
0.77647 0.65098 0.274509 1
0.77647 0.65098 0.274509 1
0.77647 0.65098 0.274509 1
0.77647 0.65098 0.274509 1
0.77647 0.65098 0.274509 1
0.77647 0.65098 0.274509 1
0.77647 0.65098 0.274509 1
0.77647 0.65098 0.274509 1
0.77647 0.65098 0.274509 1
0.77647 0.65098 0.274509 1
0.77647 0.65098 0.274509 1
0.77647 0.65098 0.274509 1
0.77647 0.65098 0.274509 1
0.77647 0.65098 0.274509 1
0.77647 0.65098 0.274509 1
0.77647 0.65098 0.274509 1
0.77647 0.65098 0.274509 1
0.77647 0.65098 0.274509 1
0.77647 0.65098 0.274509 1
0.77647 0.65098 0.274509 1
0.77647 0.65098 0.274509 1
0.77647 0.65098 0.274509 1
0.77647 0.65098 0.274509 1
0.77647 0.65098 0.274509 1
0.77647 0.65098 0.274509 1
0.77647 0.65098 0.274509 1
0.77647 0.65098 0.274509 1
0.77647 0.65098 0.274509 1
0.77647 0.65098 0.274509 1
0.77647 0.65098 0.274509 1
0.77647 0.65098 0.274509 1
0.77647 0.65098 0.274509 1
0.77647 0.65098 0.274509 1
0.77647 0.65098 0.274509 1
0.77647 0.65098 0.274509 1
0.77647 0.65098 0.274509 1
0.77647 0.65098 0.274509 1
0.77647 0.65098 0.274509 1
0.77647 0.65098 0.274509 1
0.77647 0.65098 0.274509 1
0.77647 0.65098 0.274509 1
0.77647 0.65098 0.274509 1
0.77647 0.65098 0.274509 1
0.77647 0.65098 0.274509 1
0.77647 0.65098 0.274509 1
0.77647 0.65098 0.274509 1
0.77647 0.65098 0.274509 1
0.77647 0.65098 0.274509 1
0.77647 0.65098 0.274509 1
0.77647 0.65098 0.274509 1
0.77647 0.65098 0.274509 1
0.77647 0.65098 0.274509 1
0.77647 0.65098 0.274509 1
0.77647 0.65098 0.274509 1
0.77647 0.65098 0.274509 1
0.77647 0.65098 0.274509 1
0.77647 0.65098 0.274509 1
0.77647 0.65098 0.274509 1
0.77647 0.65098 0.274509 1
0.77647 0.65098 0.274509 1
0.77647 0.65098 0.274509 1
0.77647 0.65098 0.274509 1
0.77647 0.65098 0.274509 1
0.77647 0.65098 0.274509 1
0.77647 0.65098 0.274509 1
0.77647 0.65098 0.274509 1
0.77647 0.65098 0.274509 1
0.77647 0.65098 0.274509 1
0.77647 0.65098 0.274509 1
0.77647 0.65098 0.274509 1
0.77647 0.65098 0.274509 1
0.77647 0.65098 0.274509 1
0.77647 0.65098 0.274509 1
0.77647 0.65098 0.274509 1
0.77647 0.65098 0.274509 1
0.77647 0.65098 0.274509 1
0.77647 0.65098 0.274509 1
0.77647 0.65098 0.274509 1
0.77647 0.65098 0.274509 1
0.77647 0.65098 0.274509 1
0.77647 0.65098 0.274509 1
0.77647 0.65098 0.274509 1
0.77647 0.65098 0.274509 1
0.77647 0.65098 0.274509 1
0.77647 0.65098 0.274509 1
0.77647 0.65098 0.274509 1
0.77647 0.65098 0.274509 1
0.77647 0.65098 0.274509 1
0.77647 0.65098 0.274509 1
0.77647 0.65098 0.274509 1
0.77647 0.65098 0.274509 1
0.77647 0.65098 0.274509 1
0.77647 0.65098 0.274509 1
0.77647 0.65098 0.274509 1
0.77647 0.65098 0.274509 1
0.77647 0.65098 0.274509 1
0.77647 0.65098 0.274509 1
0.77647 0.65098 0.274509 1
0.77647 0.65098 0.274509 1
0.77647 0.65098 0.274509 1
0.77647 0.65098 0.274509 1
0.77647 0.65098 0.274509 1
0.77647 0.65098 0.274509 1
0.77647 0.65098 0.274509 1
0.77647 0.65098 0.274509 1
0.77647 0.65098 0.274509 1
0.77647 0.65098 0.274509 1
0.77647 0.65098 0.274509 1
0.77647 0.65098 0.274509 1
0.77647 0.65098 0.274509 1
0.77647 0.65098 0.274509 1
0.77647 0.65098 0.274509 1
0.77647 0.65098 0.274509 1
0.77647 0.65098 0.274509 1
0.77647 0.65098 0.274509 1
0.77647 0.65098 0.274509 1
0.77647 0.65098 0.274509 1
0.77647 0.65098 0.274509 1
0.77647 0.65098 0.274509 1
0.77647 0.65098 0.274509 1
0.77647 0.65098 0.274509 1
0.77647 0.65098 0.274509 1
0.77647 0.65098 0.274509 1
0.77647 0.65098 0.274509 1
0.77647 0.65098 0.274509 1
0.77647 0.65098 0.274509 1
0.77647 0.65098 0.274509 1
0.77647 0.65098 0.274509 1
0.77647 0.65098 0.274509 1
0.77647 0.65098 0.274509 1
0.77647 0.65098 0.274509 1
0.77647 0.65098 0.274509 1
0.77647 0.65098 0.274509 1
0.77647 0.65098 0.274509 1
0.77647 0.65098 0.274509 1
0.77647 0.65098 0.274509 1
0.77647 0.65098 0.274509 1
0.77647 0.65098 0.274509 1
0.77647 0.65098 0.274509 1
0.77647 0.65098 0.274509 1
0.77647 0.65098 0.274509 1
0.77647 0.65098 0.274509 1
0.77647 0.65098 0.274509 1
0.77647 0.65098 0.274509 1
0.77647 0.65098 0.274509 1
0.77647 0.65098 0.274509 1
0.77647 0.65098 0.274509 1
0.77647 0.65098 0.274509 1
0.77647 0.65098 0.274509 1
0.77647 0.65098 0.274509 1
0.77647 0.65098 0.274509 1
0.77647 0.65098 0.274509 1
0.77647 0.65098 0.274509 1
0.77647 0.65098 0.274509 1
0.77647 0.65098 0.274509 1
0.77647 0.65098 0.274509 1
0.77647 0.65098 0.274509 1
0.77647 0.65098 0.274509 1
0.77647 0.65098 0.274509 1
0.77647 0.65098 0.274509 1
0.77647 0.65098 0.274509 1
0.77647 0.65098 0.274509 1
0.77647 0.65098 0.274509 1
0.77647 0.65098 0.274509 1
0.77647 0.65098 0.274509 1
0.77647 0.65098 0.274509 1
0.77647 0.65098 0.274509 1
0.77647 0.65098 0.274509 1
0.77647 0.65098 0.274509 1
0.77647 0.65098 0.274509 1
0.77647 0.65098 0.274509 1
0.77647 0.65098 0.274509 1
0.77647 0.65098 0.274509 1
0.77647 0.65098 0.274509 1
0.77647 0.65098 0.274509 1
0.77647 0.65098 0.274509 1
0.77647 0.65098 0.274509 1
0.77647 0.65098 0.274509 1
0.77647 0.65098 0.274509 1
0.77647 0.65098 0.274509 1
0.77647 0.65098 0.274509 1
0.77647 0.65098 0.274509 1
0.77647 0.65098 0.274509 1
0.77647 0.65098 0.274509 1
0.77647 0.65098 0.274509 1
0.77647 0.65098 0.274509 1
0.77647 0.65098 0.274509 1
0.77647 0.65098 0.274509 1
0.77647 0.65098 0.274509 1
0.77647 0.65098 0.274509 1
0.77647 0.65098 0.274509 1
0.77647 0.65098 0.274509 1
0.77647 0.65098 0.274509 1
0.77647 0.65098 0.274509 1
0.77647 0.65098 0.274509 1
0.77647 0.65098 0.274509 1
0.77647 0.65098 0.274509 1
0.77647 0.65098 0.274509 1
0.77647 0.65098 0.274509 1
0.77647 0.65098 0.274509 1
0.77647 0.65098 0.274509 1
0.77647 0.65098 0.274509 1
0.77647 0.65098 0.274509 1
0.77647 0.65098 0.274509 1
0.77647 0.65098 0.274509 1
0.77647 0.65098 0.274509 1
0.77647 0.65098 0.274509 1
0.77647 0.65098 0.274509 1
0.77647 0.65098 0.274509 1
0.77647 0.65098 0.274509 1
0.77647 0.65098 0.274509 1
0.77647 0.65098 0.274509 1
0.77647 0.65098 0.274509 1
0.77647 0.65098 0.274509 1
0.77647 0.65098 0.274509 1
0.77647 0.65098 0.274509 1
0.77647 0.65098 0.274509 1
0.77647 0.65098 0.274509 1
0.77647 0.65098 0.274509 1
0.77647 0.65098 0.274509 1
0.77647 0.65098 0.274509 1
0.77647 0.65098 0.274509 1
0.77647 0.65098 0.274509 1
0.77647 0.65098 0.274509 1
0.77647 0.65098 0.274509 1
0.77647 0.65098 0.274509 1
0.77647 0.65098 0.274509 1
0.77647 0.65098 0.274509 1
0.77647 0.65098 0.274509 1
0.77647 0.65098 0.274509 1
0.77647 0.65098 0.274509 1
0.77647 0.65098 0.274509 1
0.77647 0.65098 0.274509 1
0.77647 0.65098 0.274509 1
0.77647 0.65098 0.274509 1
0.77647 0.65098 0.274509 1
0.77647 0.65098 0.274509 1
0.77647 0.65098 0.274509 1
0.77647 0.65098 0.274509 1
0.77647 0.65098 0.274509 1
0.77647 0.65098 0.274509 1
0.77647 0.65098 0.274509 1
0.77647 0.65098 0.274509 1
0.77647 0.65098 0.274509 1
0.77647 0.65098 0.274509 1
0.77647 0.65098 0.274509 1
0.77647 0.65098 0.274509 1
0.77647 0.65098 0.274509 1
0.77647 0.65098 0.274509 1
0.77647 0.65098 0.274509 1
0.77647 0.65098 0.274509 1
0.77647 0.65098 0.274509 1
0.77647 0.65098 0.274509 1
0.77647 0.65098 0.274509 1
0.77647 0.65098 0.274509 1
0.77647 0.65098 0.274509 1
0.77647 0.65098 0.274509 1
0.77647 0.65098 0.274509 1
0.77647 0.65098 0.274509 1
0.77647 0.65098 0.274509 1
0.77647 0.65098 0.274509 1
0.77647 0.65098 0.274509 1
0.77647 0.65098 0.274509 1
0.77647 0.65098 0.274509 1
0.77647 0.65098 0.274509 1
0.77647 0.65098 0.274509 1
0.77647 0.65098 0.274509 1
0.77647 0.65098 0.274509 1
0.77647 0.65098 0.274509 1
0.77647 0.65098 0.274509 1
0.77647 0.65098 0.274509 1
0.77647 0.65098 0.274509 1
0.77647 0.65098 0.274509 1
0.77647 0.65098 0.274509 1
0.77647 0.65098 0.274509 1
0.77647 0.65098 0.274509 1
0.77647 0.65098 0.274509 1
0.77647 0.65098 0.274509 1
0.77647 0.65098 0.274509 1
0.77647 0.65098 0.274509 1
0.77647 0.65098 0.274509 1
0.77647 0.65098 0.274509 1
0.77647 0.65098 0.274509 1
0.77647 0.65098 0.274509 1
0.77647 0.65098 0.274509 1
0.77647 0.65098 0.274509 1
0.77647 0.65098 0.274509 1
0.77647 0.65098 0.274509 1
0.77647 0.65098 0.274509 1
0.77647 0.65098 0.274509 1
0.77647 0.65098 0.274509 1
0.77647 0.65098 0.274509 1
0.77647 0.65098 0.274509 1
0.77647 0.65098 0.274509 1
0.77647 0.65098 0.274509 1
0.77647 0.65098 0.274509 1
0.77647 0.65098 0.274509 1
0.77647 0.65098 0.274509 1
0.77647 0.65098 0.274509 1
0.77647 0.65098 0.274509 1
0.77647 0.65098 0.274509 1
0.77647 0.65098 0.274509 1
0.77647 0.65098 0.274509 1
0.77647 0.65098 0.274509 1
0.77647 0.65098 0.274509 1
0.77647 0.65098 0.274509 1
0.77647 0.65098 0.274509 1
0.77647 0.65098 0.274509 1
0.77647 0.65098 0.274509 1
0.77647 0.65098 0.274509 1
0.77647 0.65098 0.274509 1
0.77647 0.65098 0.274509 1
0.77647 0.65098 0.274509 1
0.77647 0.65098 0.274509 1
0.77647 0.65098 0.274509 1
0.77647 0.65098 0.274509 1
0.77647 0.65098 0.274509 1
0.77647 0.65098 0.274509 1
0.77647 0.65098 0.274509 1
0.77647 0.65098 0.274509 1
0.77647 0.65098 0.274509 1
0.77647 0.65098 0.274509 1
0.77647 0.65098 0.274509 1
0.77647 0.65098 0.274509 1
0.77647 0.65098 0.274509 1
0.77647 0.65098 0.274509 1
0.77647 0.65098 0.274509 1
0.77647 0.65098 0.274509 1
0.77647 0.65098 0.274509 1
0.77647 0.65098 0.274509 1
0.77647 0.65098 0.274509 1
0.77647 0.65098 0.274509 1
0.77647 0.65098 0.274509 1
0.77647 0.65098 0.274509 1
0.77647 0.65098 0.274509 1
0.77647 0.65098 0.274509 1
0.77647 0.65098 0.274509 1
0.77647 0.65098 0.274509 1
0.77647 0.65098 0.274509 1
0.77647 0.65098 0.274509 1
0.77647 0.65098 0.274509 1
0.77647 0.65098 0.274509 1
0.77647 0.65098 0.274509 1
0.77647 0.65098 0.274509 1
0.77647 0.65098 0.274509 1
0.77647 0.65098 0.274509 1
0.77647 0.65098 0.274509 1
0.77647 0.65098 0.274509 1
0.77647 0.65098 0.274509 1
0.77647 0.65098 0.274509 1
0.77647 0.65098 0.274509 1
0.77647 0.65098 0.274509 1
0.77647 0.65098 0.274509 1
0.77647 0.65098 0.274509 1
0.77647 0.65098 0.274509 1
0.77647 0.65098 0.274509 1
0.77647 0.65098 0.274509 1
0.77647 0.65098 0.274509 1
0.77647 0.65098 0.274509 1
0.77647 0.65098 0.274509 1
0.77647 0.65098 0.274509 1
0.77647 0.65098 0.274509 1
0.77647 0.65098 0.274509 1
0.77647 0.65098 0.274509 1
0.77647 0.65098 0.274509 1
0.77647 0.65098 0.274509 1
0.77647 0.65098 0.274509 1
0.77647 0.65098 0.274509 1
0.77647 0.65098 0.274509 1
0.77647 0.65098 0.274509 1
0.77647 0.65098 0.274509 1
0.77647 0.65098 0.274509 1
0.77647 0.65098 0.274509 1
0.77647 0.65098 0.274509 1
0.77647 0.65098 0.274509 1
0.77647 0.65098 0.274509 1
0.77647 0.65098 0.274509 1
0.77647 0.65098 0.274509 1
0.77647 0.65098 0.274509 1
0.77647 0.65098 0.274509 1
0.77647 0.65098 0.274509 1
0.77647 0.65098 0.274509 1
0.77647 0.65098 0.274509 1
0.77647 0.65098 0.274509 1
0.77647 0.65098 0.274509 1
0.77647 0.65098 0.274509 1
0.77647 0.65098 0.274509 1
0.77647 0.65098 0.274509 1
0.77647 0.65098 0.274509 1
0.77647 0.65098 0.274509 1
0.77647 0.65098 0.274509 1
0.77647 0.65098 0.274509 1
0.77647 0.65098 0.274509 1
0.77647 0.65098 0.274509 1
0.77647 0.65098 0.274509 1
0.77647 0.65098 0.274509 1
0.77647 0.65098 0.274509 1
0.77647 0.65098 0.274509 1
0.77647 0.65098 0.274509 1
0.77647 0.65098 0.274509 1
0.77647 0.65098 0.274509 1
0.77647 0.65098 0.274509 1
0.77647 0.65098 0.274509 1
0.77647 0.65098 0.274509 1
0.77647 0.65098 0.274509 1
0.77647 0.65098 0.274509 1
0.77647 0.65098 0.274509 1
0.77647 0.65098 0.274509 1
0.77647 0.65098 0.274509 1
0.77647 0.65098 0.274509 1
0.77647 0.65098 0.274509 1
0.77647 0.65098 0.274509 1
0.77647 0.65098 0.274509 1
0.77647 0.65098 0.274509 1
0.77647 0.65098 0.274509 1
0.77647 0.65098 0.274509 1
0.77647 0.65098 0.274509 1
0.77647 0.65098 0.274509 1
0.77647 0.65098 0.274509 1
0.77647 0.65098 0.274509 1
0.77647 0.65098 0.274509 1
0.77647 0.65098 0.274509 1
0.77647 0.65098 0.274509 1
0.77647 0.65098 0.274509 1
0.77647 0.65098 0.274509 1
0.77647 0.65098 0.274509 1
0.77647 0.65098 0.274509 1
0.77647 0.65098 0.274509 1
0.77647 0.65098 0.274509 1
0.77647 0.65098 0.274509 1
0.77647 0.65098 0.274509 1
0.77647 0.65098 0.274509 1
0.77647 0.65098 0.274509 1
0.77647 0.65098 0.274509 1
0.77647 0.65098 0.274509 1
0.77647 0.65098 0.274509 1
0.77647 0.65098 0.274509 1
0.77647 0.65098 0.274509 1
0.77647 0.65098 0.274509 1
0.77647 0.65098 0.274509 1
0.77647 0.65098 0.274509 1
0.77647 0.65098 0.274509 1
0.77647 0.65098 0.274509 1
0.77647 0.65098 0.274509 1
0.77647 0.65098 0.274509 1
0.77647 0.65098 0.274509 1
0.77647 0.65098 0.274509 1
0.77647 0.65098 0.274509 1
0.77647 0.65098 0.274509 1
0.77647 0.65098 0.274509 1
0.77647 0.65098 0.274509 1
0.77647 0.65098 0.274509 1
0.77647 0.65098 0.274509 1
0.77647 0.65098 0.274509 1
0.77647 0.65098 0.274509 1
0.77647 0.65098 0.274509 1
0.77647 0.65098 0.274509 1
0.77647 0.65098 0.274509 1
0.77647 0.65098 0.274509 1
0.77647 0.65098 0.274509 1
0.77647 0.65098 0.274509 1
0.77647 0.65098 0.274509 1
0.77647 0.65098 0.274509 1
0.77647 0.65098 0.274509 1
0.77647 0.65098 0.274509 1
0.77647 0.65098 0.274509 1
0.77647 0.65098 0.274509 1
0.77647 0.65098 0.274509 1
0.77647 0.65098 0.274509 1
0.77647 0.65098 0.274509 1
0.77647 0.65098 0.274509 1
0.77647 0.65098 0.274509 1
0.77647 0.65098 0.274509 1
0.77647 0.65098 0.274509 1
0.77647 0.65098 0.274509 1
0.77647 0.65098 0.274509 1
0.77647 0.65098 0.274509 1
0.77647 0.65098 0.274509 1
0.77647 0.65098 0.274509 1
0.77647 0.65098 0.274509 1
0.77647 0.65098 0.274509 1
0.77647 0.65098 0.274509 1
0.77647 0.65098 0.274509 1
0.77647 0.65098 0.274509 1
0.77647 0.65098 0.274509 1
0.77647 0.65098 0.274509 1
0.77647 0.65098 0.274509 1
0.77647 0.65098 0.274509 1
0.77647 0.65098 0.274509 1
0.77647 0.65098 0.274509 1
0.77647 0.65098 0.274509 1
0.77647 0.65098 0.274509 1
0.77647 0.65098 0.274509 1
0.77647 0.65098 0.274509 1
0.77647 0.65098 0.274509 1
0.77647 0.65098 0.274509 1
0.77647 0.65098 0.274509 1
0.77647 0.65098 0.274509 1
0.77647 0.65098 0.274509 1
0.77647 0.65098 0.274509 1
0.77647 0.65098 0.274509 1
0.77647 0.65098 0.274509 1
0.77647 0.65098 0.274509 1
0.77647 0.65098 0.274509 1
0.77647 0.65098 0.274509 1
0.77647 0.65098 0.274509 1
0.77647 0.65098 0.274509 1
0.77647 0.65098 0.274509 1
0.77647 0.65098 0.274509 1
0.77647 0.65098 0.274509 1
0.77647 0.65098 0.274509 1
0.77647 0.65098 0.274509 1
0.77647 0.65098 0.274509 1
0.77647 0.65098 0.274509 1
0.77647 0.65098 0.274509 1
0.77647 0.65098 0.274509 1
0.77647 0.65098 0.274509 1
0.77647 0.65098 0.274509 1
0.77647 0.65098 0.274509 1
0.77647 0.65098 0.274509 1
0.77647 0.65098 0.274509 1
0.77647 0.65098 0.274509 1
0.77647 0.65098 0.274509 1
0.77647 0.65098 0.274509 1
0.77647 0.65098 0.274509 1
0.77647 0.65098 0.274509 1
0.77647 0.65098 0.274509 1
0.77647 0.65098 0.274509 1
0.77647 0.65098 0.274509 1
0.77647 0.65098 0.274509 1
0.77647 0.65098 0.274509 1
0.77647 0.65098 0.274509 1
0.77647 0.65098 0.274509 1
0.77647 0.65098 0.274509 1
0.77647 0.65098 0.274509 1
0.77647 0.65098 0.274509 1
0.77647 0.65098 0.274509 1
0.77647 0.65098 0.274509 1
0.77647 0.65098 0.274509 1
0.77647 0.65098 0.274509 1
0.77647 0.65098 0.274509 1
0.77647 0.65098 0.274509 1
0.77647 0.65098 0.274509 1
0.77647 0.65098 0.274509 1
0.77647 0.65098 0.274509 1
0.77647 0.65098 0.274509 1
0.77647 0.65098 0.274509 1
0.77647 0.65098 0.274509 1
0.77647 0.65098 0.274509 1
0.77647 0.65098 0.274509 1
0.77647 0.65098 0.274509 1
0.77647 0.65098 0.274509 1
0.77647 0.65098 0.274509 1
0.77647 0.65098 0.274509 1
0.77647 0.65098 0.274509 1
0.77647 0.65098 0.274509 1
0.77647 0.65098 0.274509 1
0.77647 0.65098 0.274509 1
0.77647 0.65098 0.274509 1
0.77647 0.65098 0.274509 1
0.77647 0.65098 0.274509 1
0.77647 0.65098 0.274509 1
0.77647 0.65098 0.274509 1
0.77647 0.65098 0.274509 1
0.77647 0.65098 0.274509 1
0.77647 0.65098 0.274509 1
0.77647 0.65098 0.274509 1
0.77647 0.65098 0.274509 1
0.77647 0.65098 0.274509 1
0.77647 0.65098 0.274509 1
0.77647 0.65098 0.274509 1
0.77647 0.65098 0.274509 1
0.77647 0.65098 0.274509 1
0.77647 0.65098 0.274509 1
0.77647 0.65098 0.274509 1
0.77647 0.65098 0.274509 1
0.77647 0.65098 0.274509 1
0.77647 0.65098 0.274509 1
0.77647 0.65098 0.274509 1
0.77647 0.65098 0.274509 1
0.77647 0.65098 0.274509 1
0.77647 0.65098 0.274509 1
0.77647 0.65098 0.274509 1
0.77647 0.65098 0.274509 1
0.77647 0.65098 0.274509 1
0.77647 0.65098 0.274509 1
0.77647 0.65098 0.274509 1
0.77647 0.65098 0.274509 1
0.77647 0.65098 0.274509 1
0.77647 0.65098 0.274509 1
0.77647 0.65098 0.274509 1
0.77647 0.65098 0.274509 1
0.77647 0.65098 0.274509 1
0.77647 0.65098 0.274509 1
0.77647 0.65098 0.274509 1
0.77647 0.65098 0.274509 1
0.77647 0.65098 0.274509 1
0.77647 0.65098 0.274509 1
0.77647 0.65098 0.274509 1
0.77647 0.65098 0.274509 1
0.77647 0.65098 0.274509 1
0.77647 0.65098 0.274509 1
0.77647 0.65098 0.274509 1
0.77647 0.65098 0.274509 1
0.77647 0.65098 0.274509 1
0.77647 0.65098 0.274509 1
0.77647 0.65098 0.274509 1
0.77647 0.65098 0.274509 1
0.77647 0.65098 0.274509 1
0.77647 0.65098 0.274509 1
0.77647 0.65098 0.274509 1
0.77647 0.65098 0.274509 1
0.77647 0.65098 0.274509 1
0.77647 0.65098 0.274509 1
0.77647 0.65098 0.274509 1
0.77647 0.65098 0.274509 1
0.77647 0.65098 0.274509 1
0.77647 0.65098 0.274509 1
0.77647 0.65098 0.274509 1
0.77647 0.65098 0.274509 1
0.77647 0.65098 0.274509 1
0.77647 0.65098 0.274509 1
0.77647 0.65098 0.274509 1
0.77647 0.65098 0.274509 1
0.77647 0.65098 0.274509 1
0.77647 0.65098 0.274509 1
0.77647 0.65098 0.274509 1
0.77647 0.65098 0.274509 1
0.77647 0.65098 0.274509 1
0.77647 0.65098 0.274509 1
0.77647 0.65098 0.274509 1
0.77647 0.65098 0.274509 1
0.77647 0.65098 0.274509 1
0.77647 0.65098 0.274509 1
0.77647 0.65098 0.274509 1
0.77647 0.65098 0.274509 1
0.77647 0.65098 0.274509 1
0.77647 0.65098 0.274509 1
0.77647 0.65098 0.274509 1