# vtk DataFile Version 3.0
Gocad TSurf to VTK
ASCII
DATASET POLYDATA
POINTS 10015 float
21533571.234 4552221.965 -3800.000
21533336.203 4552241.621 -3700.000
21533842.250 4552145.742 -3800.000
21533397.578 4552185.055 -3600.000
21533694.078 4552258.875 -4000.000
21533361.656 4552316.641 -3900.000
21533152.063 4552411.316 -4000.000
21533518.422 4552306.367 -4125.000
21533282.172 4552399.180 -4375.000
21533787.938 4552378.902 -4250.000
21534154.375 4552250.219 -4000.000
21533604.734 4552443.242 -4375.000
21533667.500 4552301.434 -4375.000
21533421.516 4552507.586 -4500.000
21533913.500 4552095.281 -4250.000
21533968.531 4552389.602 -4500.000
21534462.875 4551825.453 -4375.000
21534382.500 4551794.945 -4125.000
21534353.625 4552002.105 -4625.000
21534225.266 4552131.273 -4750.000
21534479.813 4551740.762 -4375.000
21534443.750 4551777.961 -4250.000
21534573.828 4551544.777 -4625.000
21534530.156 4551707.820 -4750.000
21534617.500 4551381.734 -4500.000
21534545.375 4551362.977 -4250.000
21534624.641 4551413.508 -4625.000
21534631.781 4551445.277 -4750.000
21534573.828 4551222.953 -4625.000
21534442.797 4550746.609 -4500.000
21534260.719 4550488.305 -4625.000
21534450.406 4550896.012 -4375.000
21534465.625 4551194.816 -4125.000
21533953.031 4550112.430 -4500.000
21534083.078 4550420.375 -4375.000
21533893.391 4550012.668 -4625.000
21533896.531 4549971.688 -4875.000
21533698.594 4549855.992 -4625.000
21533539.172 4549572.391 -4500.000
21533444.172 4549599.555 -4750.000
21534014.578 4550169.441 -4250.000
21534036.500 4550280.637 -4375.000
21533673.406 4549735.906 -4375.000
21533713.250 4549909.320 -4125.000
21532624.625 4548957.926 -4500.000
21532987.500 4549275.059 -4375.000
21532779.969 4549022.301 -4750.000
21532232.266 4548795.324 -4625.000
21533237.250 4549329.531 -4750.000
21533086.281 4549208.105 -4875.000
21533189.750 4549343.113 -4875.000
21533774.094 4549813.145 -4875.000
21532935.313 4549086.676 -5000.000
21533714.453 4549713.383 -5000.000
21531055.172 4548307.523 -5000.000
21531447.531 4548470.125 -4875.000
21531226.438 4548378.500 -4875.000
21531397.719 4548449.480 -4750.000
21530668.563 4548226.605 -4750.000
21528141.828 4547697.750 -5000.000
21528676.859 4547809.734 -4875.000
21529746.922 4548033.703 -4625.000
21528092.344 4547695.621 -4875.000
21527430.422 4547460.617 -5000.000
21527687.156 4547574.922 -4750.000
21527943.891 4547689.230 -4500.000
21526397.203 4546816.969 -5000.000
21526639.719 4546968.051 -4875.000
21527124.781 4547270.211 -4625.000
21526493.063 4546876.680 -4875.000
21526368.719 4546690.793 -4750.000
21526184.906 4546617.141 -4980.152
21526200.109 4546623.227 -4945.516
21526176.203 4546613.652 -5000.000
21526241.563 4546596.160 -4875.000
21526241.563 4546596.168 -4874.986
21526271.328 4546604.480 -4809.113
21526271.344 4546604.508 -4809.096
21526304.250 4546654.035 -4714.064
21526299.828 4546690.016 -4703.422
21526354.750 4546735.594 -4565.255
21526389.219 4546764.113 -4500.000
21526401.359 4546774.164 -4475.754
21526415.125 4546785.566 -4448.251
21526757.719 4547070.633 -4250.000
21526439.922 4546806.469 -4398.719
21526482.594 4546842.445 -4315.224
21526515.938 4546870.547 -4250.000
21526531.281 4546907.820 -4216.868
21526566.063 4546967.199 -4144.960
21526636.203 4547086.906 -4000.000
21526645.500 4547102.770 -3980.791
21526912.469 4547315.672 -3900.000
21527176.469 4547388.406 -4125.000
21526685.109 4547161.965 -3900.000
21526701.234 4547197.746 -3865.629
21526709.797 4547215.434 -3849.185
21526730.047 4547257.309 -3810.258
21527568.781 4547901.234 -3700.000
21527395.203 4547633.258 -3900.000
21526784.219 4547368.598 -3706.109
21526787.391 4547375.125 -3700.000
21526787.563 4547375.371 -3699.684
21526891.266 4547531.563 -3500.313
21527760.266 4548311.738 -3050.000
21528279.563 4548198.891 -3325.000
21526891.375 4547531.750 -3500.089
21526891.422 4547531.824 -3500.000
21526980.766 4547674.188 -3328.226
21526999.000 4547703.230 -3293.180
21527013.563 4547726.441 -3265.175
21527102.672 4547850.758 -3093.861
21527158.969 4547905.227 -3050.000
21527511.969 4548246.738 -2775.000
21527131.859 4547894.211 -3037.741
21527149.141 4547932.176 -3004.511
21527151.484 4547937.328 -3000.000
21527154.078 4547944.715 -2992.774
21527180.922 4548021.063 -2918.087
21527241.234 4548119.457 -2847.338
21527464.813 4548224.934 -2787.227
21527201.188 4548078.762 -2861.645
21527222.531 4548109.070 -2842.581
21527209.250 4548101.699 -2839.206
21527510.297 4548246.387 -2775.000
21527512.016 4548247.199 -2774.537
21527513.359 4548247.918 -2774.736
21527515.125 4548248.867 -2775.000
21527530.438 4548257.492 -2779.630
21527696.750 4548355.035 -2819.447
21527701.719 4548360.293 -2814.378
21527812.625 4548449.996 -2775.000
21528039.750 4548311.738 -3050.000
21527740.344 4548401.125 -2775.000
21527734.344 4548436.031 -2732.603
21527718.453 4548474.633 -2678.903
21527799.750 4548490.551 -2681.498
21527830.234 4548496.516 -2682.471
21527835.422 4548494.715 -2686.228
21527940.375 4548470.023 -2738.778
21528375.813 4548458.465 -2775.000
21528094.547 4548529.926 -2623.586
21528423.922 4548588.254 -2500.000
21528909.359 4548534.688 -2775.000
21528248.922 4548588.254 -2500.000
21528138.063 4548527.938 -2333.077
21528157.156 4548452.750 -2125.000
21528046.484 4548504.078 -2267.048
21528017.031 4548495.523 -2252.416
21527785.625 4548362.684 -1982.569
21527805.703 4548393.859 -1956.731
21527785.875 4548370.090 -2000.000
21527901.156 4548461.859 -2194.834
21527750.813 4548398.867 -2074.545
21527760.406 4548408.414 -2095.271
21527745.891 4548402.902 -2085.001
21527833.969 4548437.762 -1920.348
21527847.438 4548449.883 -1914.221
21527989.406 4548530.547 -1909.711
21528364.047 4548660.766 -1938.887
21527907.766 4548504.203 -1886.765
21528443.609 4548688.422 -1945.082
21528453.422 4548691.367 -1949.635
21528540.391 4548712.695 -2000.000
21528628.453 4548745.266 -2028.058
21528804.813 4548810.492 -2084.247
21528827.156 4548817.336 -2078.964
21528839.203 4548821.027 -2076.113
21529066.875 4548900.328 -2000.000
21529605.359 4548956.660 -2125.000
21530014.563 4548852.277 -2775.000
21529092.000 4548912.445 -1983.773
21529170.188 4548950.164 -1933.266
21529297.969 4548993.273 -1988.271
21529302.297 4548994.734 -1990.133
21529347.984 4549013.539 -1984.610
21529480.016 4549067.887 -1968.648
21529605.422 4549117.070 -1971.636
21530498.844 4549329.297 -2125.000
21530522.719 4548958.141 -2775.000
21529693.469 4549151.598 -1973.734
21529723.422 4549162.625 -1975.128
21529728.844 4549164.625 -1975.381
21529787.766 4549186.328 -1978.125
21529820.891 4549224.406 -1954.926
21529863.109 4549272.938 -1925.357
21529876.844 4549292.918 -1913.961
21529894.875 4549319.168 -1898.987
21529909.734 4549340.797 -1886.650
21529911.109 4549342.801 -1885.506
21529911.938 4549344.004 -1884.820
21529912.328 4549344.578 -1884.494
21529913.156 4549345.781 -1883.806
21529914.219 4549347.328 -1882.924
21529914.578 4549347.848 -1882.627
21529915.859 4549349.723 -1881.557
21529914.156 4549347.328 -1882.901
21529916.156 4549350.156 -1881.310
21529916.219 4549350.250 -1881.257
21529916.672 4549350.891 -1880.891
21529916.766 4549351.027 -1880.812
21529916.813 4549351.109 -1880.766
21529917.531 4549352.145 -1880.176
21529918.125 4549353.023 -1879.676
21529932.391 4549373.773 -1867.838
21529951.563 4549401.672 -1851.924
21529951.938 4549402.234 -1851.605
21529952.078 4549402.441 -1851.487
21529953.938 4549405.156 -1849.938
21529954.156 4549405.461 -1849.764
21529954.250 4549405.602 -1849.683
21529955.953 4549408.086 -1848.267
21529956.672 4549409.121 -1847.676
21529964.172 4549420.031 -1841.453
21529965.531 4549422.027 -1840.316
21529965.906 4549422.563 -1840.010
21529966.188 4549422.973 -1839.776
21529966.531 4549423.473 -1839.492
21529967.250 4549424.535 -1838.885
21529969.031 4549427.121 -1837.408
21529974.031 4549434.387 -1833.265
21529974.781 4549435.484 -1832.639
21529976.172 4549437.520 -1831.478
21529974.000 4549434.391 -1833.248
21529977.250 4549439.086 -1830.584
21529981.375 4549445.078 -1827.166
21529981.500 4549445.273 -1827.055
21529981.672 4549445.516 -1826.917
21529982.688 4549447.000 -1826.070
21529984.406 4549449.500 -1824.643
21529997.531 4549468.605 -1813.745
21529999.031 4549470.785 -1812.503
21530006.594 4549481.785 -1806.227
21530006.688 4549481.930 -1806.144
21530013.594 4549491.984 -1800.410
21530029.766 4549515.527 -1786.980
21530031.375 4549518.742 -1785.273
21530551.234 4549732.680 -1847.486
21531375.391 4549735.813 -2125.000
21530102.266 4549553.363 -1755.523
21530539.438 4549766.852 -1572.074
21530539.703 4549766.980 -1571.965
21530699.781 4549793.813 -1865.263
21530607.375 4549800.031 -1543.567
21530613.938 4549803.242 -1540.810
21530618.344 4549805.395 -1538.963
21530709.563 4549797.855 -1866.427
21530622.234 4549807.305 -1537.325
21530713.328 4549799.410 -1866.875
21530623.719 4549808.031 -1536.701
21530629.531 4549810.879 -1534.260
21530635.031 4549813.574 -1531.946
21530723.125 4549803.453 -1868.039
21530638.844 4549815.441 -1530.344
21530640.078 4549816.047 -1529.824
21530726.844 4549804.992 -1868.482
21530640.281 4549816.145 -1529.742
21530649.063 4549820.441 -1526.053
21530750.156 4549814.609 -1871.260
21530685.219 4549838.145 -1510.861
21530686.266 4549838.660 -1510.416
21530686.547 4549838.797 -1510.300
21530753.828 4549816.121 -1871.697
21530780.688 4549827.207 -1874.894
21530898.250 4549867.230 -1893.416
21530696.078 4549843.469 -1506.294
21530707.828 4549849.215 -1501.361
21530711.063 4549850.801 -1500.000
21530715.750 4549852.820 -1500.000
21530722.844 4549855.867 -1500.000
21530724.813 4549856.711 -1500.000
21530790.500 4549831.262 -1876.061
21530726.484 4549857.430 -1500.000
21530794.063 4549832.734 -1876.486
21530858.000 4549854.844 -1886.374
21530727.797 4549857.996 -1500.000
21530731.078 4549859.406 -1500.000
21530742.000 4549864.098 -1500.000
21530803.891 4549836.785 -1877.656
21530745.625 4549865.656 -1500.000
21530746.359 4549865.969 -1500.000
21530807.422 4549838.246 -1878.076
21530746.938 4549866.215 -1500.000
[...]
POINT_DATA 10015
COLOR_SCALARS GocadColor 4
0.937255 0.517647 0.937255 1
0.937255 0.517647 0.937255 1
0.937255 0.517647 0.937255 1
0.937255 0.517647 0.937255 1
0.937255 0.517647 0.937255 1
0.937255 0.517647 0.937255 1
0.937255 0.517647 0.937255 1
0.937255 0.517647 0.937255 1
0.937255 0.517647 0.937255 1
0.937255 0.517647 0.937255 1
0.937255 0.517647 0.937255 1
0.937255 0.517647 0.937255 1
0.937255 0.517647 0.937255 1
0.937255 0.517647 0.937255 1
0.937255 0.517647 0.937255 1
0.937255 0.517647 0.937255 1
0.937255 0.517647 0.937255 1
0.937255 0.517647 0.937255 1
0.937255 0.517647 0.937255 1
0.937255 0.517647 0.937255 1
0.937255 0.517647 0.937255 1
0.937255 0.517647 0.937255 1
0.937255 0.517647 0.937255 1
0.937255 0.517647 0.937255 1
0.937255 0.517647 0.937255 1
0.937255 0.517647 0.937255 1
0.937255 0.517647 0.937255 1
0.937255 0.517647 0.937255 1
0.937255 0.517647 0.937255 1
0.937255 0.517647 0.937255 1
0.937255 0.517647 0.937255 1
0.937255 0.517647 0.937255 1
0.937255 0.517647 0.937255 1
0.937255 0.517647 0.937255 1
0.937255 0.517647 0.937255 1
0.937255 0.517647 0.937255 1
0.937255 0.517647 0.937255 1
0.937255 0.517647 0.937255 1
0.937255 0.517647 0.937255 1
0.937255 0.517647 0.937255 1
0.937255 0.517647 0.937255 1
0.937255 0.517647 0.937255 1
0.937255 0.517647 0.937255 1
0.937255 0.517647 0.937255 1
0.937255 0.517647 0.937255 1
0.937255 0.517647 0.937255 1
0.937255 0.517647 0.937255 1
0.937255 0.517647 0.937255 1
0.937255 0.517647 0.937255 1
0.937255 0.517647 0.937255 1
0.937255 0.517647 0.937255 1
0.937255 0.517647 0.937255 1
0.937255 0.517647 0.937255 1
0.937255 0.517647 0.937255 1
0.937255 0.517647 0.937255 1
0.937255 0.517647 0.937255 1
0.937255 0.517647 0.937255 1
0.937255 0.517647 0.937255 1
0.937255 0.517647 0.937255 1
0.937255 0.517647 0.937255 1
0.937255 0.517647 0.937255 1
0.937255 0.517647 0.937255 1
0.937255 0.517647 0.937255 1
0.937255 0.517647 0.937255 1
0.937255 0.517647 0.937255 1
0.937255 0.517647 0.937255 1
0.937255 0.517647 0.937255 1
0.937255 0.517647 0.937255 1
0.937255 0.517647 0.937255 1
0.937255 0.517647 0.937255 1
0.937255 0.517647 0.937255 1
0.937255 0.517647 0.937255 1
0.937255 0.517647 0.937255 1
0.937255 0.517647 0.937255 1
0.937255 0.517647 0.937255 1
0.937255 0.517647 0.937255 1
0.937255 0.517647 0.937255 1
0.937255 0.517647 0.937255 1
0.937255 0.517647 0.937255 1
0.937255 0.517647 0.937255 1
0.937255 0.517647 0.937255 1
0.937255 0.517647 0.937255 1
0.937255 0.517647 0.937255 1
0.937255 0.517647 0.937255 1
0.937255 0.517647 0.937255 1
0.937255 0.517647 0.937255 1
0.937255 0.517647 0.937255 1
0.937255 0.517647 0.937255 1
0.937255 0.517647 0.937255 1
0.937255 0.517647 0.937255 1
0.937255 0.517647 0.937255 1
0.937255 0.517647 0.937255 1
0.937255 0.517647 0.937255 1
0.937255 0.517647 0.937255 1
0.937255 0.517647 0.937255 1
0.937255 0.517647 0.937255 1
0.937255 0.517647 0.937255 1
0.937255 0.517647 0.937255 1
0.937255 0.517647 0.937255 1
0.937255 0.517647 0.937255 1
0.937255 0.517647 0.937255 1
0.937255 0.517647 0.937255 1
0.937255 0.517647 0.937255 1
0.937255 0.517647 0.937255 1
0.937255 0.517647 0.937255 1
0.937255 0.517647 0.937255 1
0.937255 0.517647 0.937255 1
0.937255 0.517647 0.937255 1
0.937255 0.517647 0.937255 1
0.937255 0.517647 0.937255 1
0.937255 0.517647 0.937255 1
0.937255 0.517647 0.937255 1
0.937255 0.517647 0.937255 1
0.937255 0.517647 0.937255 1
0.937255 0.517647 0.937255 1
0.937255 0.517647 0.937255 1
0.937255 0.517647 0.937255 1
0.937255 0.517647 0.937255 1
0.937255 0.517647 0.937255 1
0.937255 0.517647 0.937255 1
0.937255 0.517647 0.937255 1
0.937255 0.517647 0.937255 1
0.937255 0.517647 0.937255 1
0.937255 0.517647 0.937255 1
0.937255 0.517647 0.937255 1
0.937255 0.517647 0.937255 1
0.937255 0.517647 0.937255 1
0.937255 0.517647 0.937255 1
0.937255 0.517647 0.937255 1
0.937255 0.517647 0.937255 1
0.937255 0.517647 0.937255 1
0.937255 0.517647 0.937255 1
0.937255 0.517647 0.937255 1
0.937255 0.517647 0.937255 1
0.937255 0.517647 0.937255 1
0.937255 0.517647 0.937255 1
0.937255 0.517647 0.937255 1
0.937255 0.517647 0.937255 1
0.937255 0.517647 0.937255 1
0.937255 0.517647 0.937255 1
0.937255 0.517647 0.937255 1
0.937255 0.517647 0.937255 1
0.937255 0.517647 0.937255 1
0.937255 0.517647 0.937255 1
0.937255 0.517647 0.937255 1
0.937255 0.517647 0.937255 1
0.937255 0.517647 0.937255 1
0.937255 0.517647 0.937255 1
0.937255 0.517647 0.937255 1
0.937255 0.517647 0.937255 1
0.937255 0.517647 0.937255 1
0.937255 0.517647 0.937255 1
0.937255 0.517647 0.937255 1
0.937255 0.517647 0.937255 1
0.937255 0.517647 0.937255 1
0.937255 0.517647 0.937255 1
0.937255 0.517647 0.937255 1
0.937255 0.517647 0.937255 1
0.937255 0.517647 0.937255 1
0.937255 0.517647 0.937255 1
0.937255 0.517647 0.937255 1
0.937255 0.517647 0.937255 1
0.937255 0.517647 0.937255 1
0.937255 0.517647 0.937255 1
0.937255 0.517647 0.937255 1
0.937255 0.517647 0.937255 1
0.937255 0.517647 0.937255 1
0.937255 0.517647 0.937255 1
0.937255 0.517647 0.937255 1
0.937255 0.517647 0.937255 1
0.937255 0.517647 0.937255 1
0.937255 0.517647 0.937255 1
0.937255 0.517647 0.937255 1
0.937255 0.517647 0.937255 1
0.937255 0.517647 0.937255 1
0.937255 0.517647 0.937255 1
0.937255 0.517647 0.937255 1
0.937255 0.517647 0.937255 1
0.937255 0.517647 0.937255 1
0.937255 0.517647 0.937255 1
0.937255 0.517647 0.937255 1
0.937255 0.517647 0.937255 1
0.937255 0.517647 0.937255 1
0.937255 0.517647 0.937255 1
0.937255 0.517647 0.937255 1
0.937255 0.517647 0.937255 1
0.937255 0.517647 0.937255 1
0.937255 0.517647 0.937255 1
0.937255 0.517647 0.937255 1
0.937255 0.517647 0.937255 1
0.937255 0.517647 0.937255 1
0.937255 0.517647 0.937255 1
0.937255 0.517647 0.937255 1
0.937255 0.517647 0.937255 1
0.937255 0.517647 0.937255 1
0.937255 0.517647 0.937255 1
0.937255 0.517647 0.937255 1
0.937255 0.517647 0.937255 1
0.937255 0.517647 0.937255 1
0.937255 0.517647 0.937255 1
0.937255 0.517647 0.937255 1
0.937255 0.517647 0.937255 1
0.937255 0.517647 0.937255 1
0.937255 0.517647 0.937255 1
0.937255 0.517647 0.937255 1
0.937255 0.517647 0.937255 1
0.937255 0.517647 0.937255 1
0.937255 0.517647 0.937255 1
0.937255 0.517647 0.937255 1
0.937255 0.517647 0.937255 1
0.937255 0.517647 0.937255 1
0.937255 0.517647 0.937255 1
0.937255 0.517647 0.937255 1
0.937255 0.517647 0.937255 1
0.937255 0.517647 0.937255 1
0.937255 0.517647 0.937255 1
0.937255 0.517647 0.937255 1
0.937255 0.517647 0.937255 1
0.937255 0.517647 0.937255 1
0.937255 0.517647 0.937255 1
0.937255 0.517647 0.937255 1
0.937255 0.517647 0.937255 1
0.937255 0.517647 0.937255 1
0.937255 0.517647 0.937255 1
0.937255 0.517647 0.937255 1
0.937255 0.517647 0.937255 1
0.937255 0.517647 0.937255 1
0.937255 0.517647 0.937255 1
0.937255 0.517647 0.937255 1
0.937255 0.517647 0.937255 1
0.937255 0.517647 0.937255 1
0.937255 0.517647 0.937255 1
0.937255 0.517647 0.937255 1
0.937255 0.517647 0.937255 1
0.937255 0.517647 0.937255 1
0.937255 0.517647 0.937255 1
0.937255 0.517647 0.937255 1
0.937255 0.517647 0.937255 1
0.937255 0.517647 0.937255 1
0.937255 0.517647 0.937255 1
0.937255 0.517647 0.937255 1
0.937255 0.517647 0.937255 1
0.937255 0.517647 0.937255 1
0.937255 0.517647 0.937255 1
0.937255 0.517647 0.937255 1
0.937255 0.517647 0.937255 1
0.937255 0.517647 0.937255 1
0.937255 0.517647 0.937255 1
0.937255 0.517647 0.937255 1
0.937255 0.517647 0.937255 1
0.937255 0.517647 0.937255 1
0.937255 0.517647 0.937255 1
0.937255 0.517647 0.937255 1
0.937255 0.517647 0.937255 1
0.937255 0.517647 0.937255 1
0.937255 0.517647 0.937255 1
0.937255 0.517647 0.937255 1
0.937255 0.517647 0.937255 1
0.937255 0.517647 0.937255 1
0.937255 0.517647 0.937255 1
0.937255 0.517647 0.937255 1
0.937255 0.517647 0.937255 1
0.937255 0.517647 0.937255 1
0.937255 0.517647 0.937255 1
0.937255 0.517647 0.937255 1
0.937255 0.517647 0.937255 1
0.937255 0.517647 0.937255 1
0.937255 0.517647 0.937255 1
0.937255 0.517647 0.937255 1
0.937255 0.517647 0.937255 1
0.937255 0.517647 0.937255 1
0.937255 0.517647 0.937255 1
0.937255 0.517647 0.937255 1
0.937255 0.517647 0.937255 1
0.937255 0.517647 0.937255 1
0.937255 0.517647 0.937255 1
0.937255 0.517647 0.937255 1
0.937255 0.517647 0.937255 1
0.937255 0.517647 0.937255 1
0.937255 0.517647 0.937255 1
0.937255 0.517647 0.937255 1
0.937255 0.517647 0.937255 1
0.937255 0.517647 0.937255 1
0.937255 0.517647 0.937255 1
0.937255 0.517647 0.937255 1
0.937255 0.517647 0.937255 1
0.937255 0.517647 0.937255 1
0.937255 0.517647 0.937255 1
0.937255 0.517647 0.937255 1
0.937255 0.517647 0.937255 1
0.937255 0.517647 0.937255 1
0.937255 0.517647 0.937255 1
0.937255 0.517647 0.937255 1
0.937255 0.517647 0.937255 1
0.937255 0.517647 0.937255 1
0.937255 0.517647 0.937255 1
0.937255 0.517647 0.937255 1
0.937255 0.517647 0.937255 1
0.937255 0.517647 0.937255 1
0.937255 0.517647 0.937255 1
0.937255 0.517647 0.937255 1
0.937255 0.517647 0.937255 1
0.937255 0.517647 0.937255 1
0.937255 0.517647 0.937255 1
0.937255 0.517647 0.937255 1
0.937255 0.517647 0.937255 1
0.937255 0.517647 0.937255 1
0.937255 0.517647 0.937255 1
0.937255 0.517647 0.937255 1
0.937255 0.517647 0.937255 1
0.937255 0.517647 0.937255 1
0.937255 0.517647 0.937255 1
0.937255 0.517647 0.937255 1
0.937255 0.517647 0.937255 1
0.937255 0.517647 0.937255 1
0.937255 0.517647 0.937255 1
0.937255 0.517647 0.937255 1
0.937255 0.517647 0.937255 1
0.937255 0.517647 0.937255 1
0.937255 0.517647 0.937255 1
0.937255 0.517647 0.937255 1
0.937255 0.517647 0.937255 1
0.937255 0.517647 0.937255 1
0.937255 0.517647 0.937255 1
0.937255 0.517647 0.937255 1
0.937255 0.517647 0.937255 1
0.937255 0.517647 0.937255 1
0.937255 0.517647 0.937255 1
0.937255 0.517647 0.937255 1
0.937255 0.517647 0.937255 1
0.937255 0.517647 0.937255 1
0.937255 0.517647 0.937255 1
0.937255 0.517647 0.937255 1
0.937255 0.517647 0.937255 1
0.937255 0.517647 0.937255 1
0.937255 0.517647 0.937255 1
0.937255 0.517647 0.937255 1
0.937255 0.517647 0.937255 1
0.937255 0.517647 0.937255 1
0.937255 0.517647 0.937255 1
0.937255 0.517647 0.937255 1
0.937255 0.517647 0.937255 1
0.937255 0.517647 0.937255 1
0.937255 0.517647 0.937255 1
0.937255 0.517647 0.937255 1
0.937255 0.517647 0.937255 1
0.937255 0.517647 0.937255 1
0.937255 0.517647 0.937255 1
0.937255 0.517647 0.937255 1
0.937255 0.517647 0.937255 1
0.937255 0.517647 0.937255 1
0.937255 0.517647 0.937255 1
0.937255 0.517647 0.937255 1
0.937255 0.517647 0.937255 1
0.937255 0.517647 0.937255 1
0.937255 0.517647 0.937255 1
0.937255 0.517647 0.937255 1
0.937255 0.517647 0.937255 1
0.937255 0.517647 0.937255 1
0.937255 0.517647 0.937255 1
0.937255 0.517647 0.937255 1
0.937255 0.517647 0.937255 1
0.937255 0.517647 0.937255 1
0.937255 0.517647 0.937255 1
0.937255 0.517647 0.937255 1
0.937255 0.517647 0.937255 1
0.937255 0.517647 0.937255 1
0.937255 0.517647 0.937255 1
0.937255 0.517647 0.937255 1
0.937255 0.517647 0.937255 1
0.937255 0.517647 0.937255 1
0.937255 0.517647 0.937255 1
0.937255 0.517647 0.937255 1
0.937255 0.517647 0.937255 1
0.937255 0.517647 0.937255 1
0.937255 0.517647 0.937255 1
0.937255 0.517647 0.937255 1
0.937255 0.517647 0.937255 1
0.937255 0.517647 0.937255 1
0.937255 0.517647 0.937255 1
0.937255 0.517647 0.937255 1
0.937255 0.517647 0.937255 1
0.937255 0.517647 0.937255 1
0.937255 0.517647 0.937255 1
0.937255 0.517647 0.937255 1
0.937255 0.517647 0.937255 1
0.937255 0.517647 0.937255 1
0.937255 0.517647 0.937255 1
0.937255 0.517647 0.937255 1
0.937255 0.517647 0.937255 1
0.937255 0.517647 0.937255 1
0.937255 0.517647 0.937255 1
0.937255 0.517647 0.937255 1
0.937255 0.517647 0.937255 1
0.937255 0.517647 0.937255 1
0.937255 0.517647 0.937255 1
0.937255 0.517647 0.937255 1
0.937255 0.517647 0.937255 1
0.937255 0.517647 0.937255 1
0.937255 0.517647 0.937255 1
0.937255 0.517647 0.937255 1
0.937255 0.517647 0.937255 1
0.937255 0.517647 0.937255 1
0.937255 0.517647 0.937255 1
0.937255 0.517647 0.937255 1
0.937255 0.517647 0.937255 1
0.937255 0.517647 0.937255 1
0.937255 0.517647 0.937255 1
0.937255 0.517647 0.937255 1
0.937255 0.517647 0.937255 1
0.937255 0.517647 0.937255 1
0.937255 0.517647 0.937255 1
0.937255 0.517647 0.937255 1
0.937255 0.517647 0.937255 1
0.937255 0.517647 0.937255 1
0.937255 0.517647 0.937255 1
0.937255 0.517647 0.937255 1
0.937255 0.517647 0.937255 1
0.937255 0.517647 0.937255 1
0.937255 0.517647 0.937255 1
0.937255 0.517647 0.937255 1
0.937255 0.517647 0.937255 1
0.937255 0.517647 0.937255 1
0.937255 0.517647 0.937255 1
0.937255 0.517647 0.937255 1
0.937255 0.517647 0.937255 1
0.937255 0.517647 0.937255 1
0.937255 0.517647 0.937255 1
0.937255 0.517647 0.937255 1
0.937255 0.517647 0.937255 1
0.937255 0.517647 0.937255 1
0.937255 0.517647 0.937255 1
0.937255 0.517647 0.937255 1
0.937255 0.517647 0.937255 1
0.937255 0.517647 0.937255 1
0.937255 0.517647 0.937255 1
0.937255 0.517647 0.937255 1
0.937255 0.517647 0.937255 1
0.937255 0.517647 0.937255 1
0.937255 0.517647 0.937255 1
0.937255 0.517647 0.937255 1
0.937255 0.517647 0.937255 1
0.937255 0.517647 0.937255 1
0.937255 0.517647 0.937255 1
0.937255 0.517647 0.937255 1
0.937255 0.517647 0.937255 1
0.937255 0.517647 0.937255 1
0.937255 0.517647 0.937255 1
0.937255 0.517647 0.937255 1
0.937255 0.517647 0.937255 1
0.937255 0.517647 0.937255 1
0.937255 0.517647 0.937255 1
0.937255 0.517647 0.937255 1
0.937255 0.517647 0.937255 1
0.937255 0.517647 0.937255 1
0.937255 0.517647 0.937255 1
0.937255 0.517647 0.937255 1
0.937255 0.517647 0.937255 1
0.937255 0.517647 0.937255 1
0.937255 0.517647 0.937255 1
0.937255 0.517647 0.937255 1
0.937255 0.517647 0.937255 1
0.937255 0.517647 0.937255 1
0.937255 0.517647 0.937255 1
0.937255 0.517647 0.937255 1
0.937255 0.517647 0.937255 1
0.937255 0.517647 0.937255 1
0.937255 0.517647 0.937255 1
0.937255 0.517647 0.937255 1
0.937255 0.517647 0.937255 1
0.937255 0.517647 0.937255 1
0.937255 0.517647 0.937255 1
0.937255 0.517647 0.937255 1
0.937255 0.517647 0.937255 1
0.937255 0.517647 0.937255 1
0.937255 0.517647 0.937255 1
0.937255 0.517647 0.937255 1
0.937255 0.517647 0.937255 1
0.937255 0.517647 0.937255 1
0.937255 0.517647 0.937255 1
0.937255 0.517647 0.937255 1
0.937255 0.517647 0.937255 1
0.937255 0.517647 0.937255 1
0.937255 0.517647 0.937255 1
0.937255 0.517647 0.937255 1
0.937255 0.517647 0.937255 1
0.937255 0.517647 0.937255 1
0.937255 0.517647 0.937255 1
0.937255 0.517647 0.937255 1
0.937255 0.517647 0.937255 1
0.937255 0.517647 0.937255 1
0.937255 0.517647 0.937255 1
0.937255 0.517647 0.937255 1
0.937255 0.517647 0.937255 1
0.937255 0.517647 0.937255 1
0.937255 0.517647 0.937255 1
0.937255 0.517647 0.937255 1
0.937255 0.517647 0.937255 1
0.937255 0.517647 0.937255 1
0.937255 0.517647 0.937255 1
0.937255 0.517647 0.937255 1
0.937255 0.517647 0.937255 1
0.937255 0.517647 0.937255 1
0.937255 0.517647 0.937255 1
0.937255 0.517647 0.937255 1
0.937255 0.517647 0.937255 1
0.937255 0.517647 0.937255 1
0.937255 0.517647 0.937255 1
0.937255 0.517647 0.937255 1
0.937255 0.517647 0.937255 1
0.937255 0.517647 0.937255 1
0.937255 0.517647 0.937255 1
0.937255 0.517647 0.937255 1
0.937255 0.517647 0.937255 1
0.937255 0.517647 0.937255 1
0.937255 0.517647 0.937255 1
0.937255 0.517647 0.937255 1
0.937255 0.517647 0.937255 1
0.937255 0.517647 0.937255 1
0.937255 0.517647 0.937255 1
0.937255 0.517647 0.937255 1
0.937255 0.517647 0.937255 1
0.937255 0.517647 0.937255 1
0.937255 0.517647 0.937255 1
0.937255 0.517647 0.937255 1
0.937255 0.517647 0.937255 1
0.937255 0.517647 0.937255 1
0.937255 0.517647 0.937255 1
0.937255 0.517647 0.937255 1
0.937255 0.517647 0.937255 1
0.937255 0.517647 0.937255 1
0.937255 0.517647 0.937255 1
0.937255 0.517647 0.937255 1
0.937255 0.517647 0.937255 1
0.937255 0.517647 0.937255 1
0.937255 0.517647 0.937255 1
0.937255 0.517647 0.937255 1
0.937255 0.517647 0.937255 1
0.937255 0.517647 0.937255 1
0.937255 0.517647 0.937255 1
0.937255 0.517647 0.937255 1
0.937255 0.517647 0.937255 1
0.937255 0.517647 0.937255 1
0.937255 0.517647 0.937255 1
0.937255 0.517647 0.937255 1
0.937255 0.517647 0.937255 1
0.937255 0.517647 0.937255 1
0.937255 0.517647 0.937255 1
0.937255 0.517647 0.937255 1
0.937255 0.517647 0.937255 1
0.937255 0.517647 0.937255 1
0.937255 0.517647 0.937255 1
0.937255 0.517647 0.937255 1
0.937255 0.517647 0.937255 1
0.937255 0.517647 0.937255 1
0.937255 0.517647 0.937255 1
0.937255 0.517647 0.937255 1
0.937255 0.517647 0.937255 1
0.937255 0.517647 0.937255 1
0.937255 0.517647 0.937255 1
0.937255 0.517647 0.937255 1
0.937255 0.517647 0.937255 1
0.937255 0.517647 0.937255 1
0.937255 0.517647 0.937255 1
0.937255 0.517647 0.937255 1
0.937255 0.517647 0.937255 1
0.937255 0.517647 0.937255 1
0.937255 0.517647 0.937255 1
0.937255 0.517647 0.937255 1
0.937255 0.517647 0.937255 1
0.937255 0.517647 0.937255 1
0.937255 0.517647 0.937255 1
0.937255 0.517647 0.937255 1
0.937255 0.517647 0.937255 1
0.937255 0.517647 0.937255 1
0.937255 0.517647 0.937255 1
0.937255 0.517647 0.937255 1
0.937255 0.517647 0.937255 1
0.937255 0.517647 0.937255 1
0.937255 0.517647 0.937255 1
0.937255 0.517647 0.937255 1
0.937255 0.517647 0.937255 1
0.937255 0.517647 0.937255 1
0.937255 0.517647 0.937255 1
0.937255 0.517647 0.937255 1
0.937255 0.517647 0.937255 1
0.937255 0.517647 0.937255 1
0.937255 0.517647 0.937255 1
0.937255 0.517647 0.937255 1
0.937255 0.517647 0.937255 1
0.937255 0.517647 0.937255 1
0.937255 0.517647 0.937255 1
0.937255 0.517647 0.937255 1
0.937255 0.517647 0.937255 1
0.937255 0.517647 0.937255 1
0.937255 0.517647 0.937255 1
0.937255 0.517647 0.937255 1
0.937255 0.517647 0.937255 1
0.937255 0.517647 0.937255 1
0.937255 0.517647 0.937255 1
0.937255 0.517647 0.937255 1
0.937255 0.517647 0.937255 1
0.937255 0.517647 0.937255 1
0.937255 0.517647 0.937255 1
0.937255 0.517647 0.937255 1
0.937255 0.517647 0.937255 1
0.937255 0.517647 0.937255 1
0.937255 0.517647 0.937255 1
0.937255 0.517647 0.937255 1
0.937255 0.517647 0.937255 1
0.937255 0.517647 0.937255 1
0.937255 0.517647 0.937255 1
0.937255 0.517647 0.937255 1
0.937255 0.517647 0.937255 1
0.937255 0.517647 0.937255 1
0.937255 0.517647 0.937255 1
0.937255 0.517647 0.937255 1
0.937255 0.517647 0.937255 1
0.937255 0.517647 0.937255 1
0.937255 0.517647 0.937255 1
0.937255 0.517647 0.937255 1
0.937255 0.517647 0.937255 1
0.937255 0.517647 0.937255 1
0.937255 0.517647 0.937255 1
0.937255 0.517647 0.937255 1
0.937255 0.517647 0.937255 1
0.937255 0.517647 0.937255 1
0.937255 0.517647 0.937255 1
0.937255 0.517647 0.937255 1
0.937255 0.517647 0.937255 1
0.937255 0.517647 0.937255 1
0.937255 0.517647 0.937255 1
0.937255 0.517647 0.937255 1
0.937255 0.517647 0.937255 1
0.937255 0.517647 0.937255 1
0.937255 0.517647 0.937255 1
0.937255 0.517647 0.937255 1
0.937255 0.517647 0.937255 1
0.937255 0.517647 0.937255 1
0.937255 0.517647 0.937255 1
0.937255 0.517647 0.937255 1
0.937255 0.517647 0.937255 1
0.937255 0.517647 0.937255 1
0.937255 0.517647 0.937255 1
0.937255 0.517647 0.937255 1
0.937255 0.517647 0.937255 1
0.937255 0.517647 0.937255 1
0.937255 0.517647 0.937255 1
0.937255 0.517647 0.937255 1
0.937255 0.517647 0.937255 1
0.937255 0.517647 0.937255 1
0.937255 0.517647 0.937255 1
0.937255 0.517647 0.937255 1
0.937255 0.517647 0.937255 1
0.937255 0.517647 0.937255 1
0.937255 0.517647 0.937255 1
0.937255 0.517647 0.937255 1
0.937255 0.517647 0.937255 1
0.937255 0.517647 0.937255 1
0.937255 0.517647 0.937255 1
0.937255 0.517647 0.937255 1
0.937255 0.517647 0.937255 1
0.937255 0.517647 0.937255 1
0.937255 0.517647 0.937255 1
0.937255 0.517647 0.937255 1
0.937255 0.517647 0.937255 1
0.937255 0.517647 0.937255 1
0.937255 0.517647 0.937255 1
0.937255 0.517647 0.937255 1
0.937255 0.517647 0.937255 1
0.937255 0.517647 0.937255 1
0.937255 0.517647 0.937255 1
0.937255 0.517647 0.937255 1
0.937255 0.517647 0.937255 1
0.937255 0.517647 0.937255 1
0.937255 0.517647 0.937255 1
0.937255 0.517647 0.937255 1
0.937255 0.517647 0.937255 1
0.937255 0.517647 0.937255 1
0.937255 0.517647 0.937255 1
0.937255 0.517647 0.937255 1
0.937255 0.517647 0.937255 1
0.937255 0.517647 0.937255 1
0.937255 0.517647 0.937255 1
0.937255 0.517647 0.937255 1
0.937255 0.517647 0.937255 1
0.937255 0.517647 0.937255 1
0.937255 0.517647 0.937255 1