# vtk DataFile Version 3.0
Gocad TSurf to VTK
ASCII
DATASET POLYDATA
POINTS 170 float
21525375.359 4542312.002 -2500.000
21525420.172 4542273.076 -2000.000
21525366.109 4542287.438 -2000.000
21525356.859 4542262.871 -1500.000
21525320.500 4542287.438 -2000.000
21525483.484 4542283.281 -2500.000
21525630.516 4542202.117 -2000.000
21525384.609 4542336.566 -3000.000
21525284.125 4542312.002 -2500.000
21525546.797 4542293.486 -3000.000
21525623.719 4542235.977 -2500.000
21525393.859 4542361.133 -3500.000
21525247.750 4542336.566 -3000.000
21525610.109 4542303.691 -3500.000
21525616.906 4542269.834 -3000.000
21525575.469 4542334.102 -3875.000
21525413.281 4542377.184 -3875.000
21525617.719 4542319.742 -3875.000
21525625.313 4542335.791 -4250.000
21525657.406 4542291.865 -3875.000
21525731.750 4542219.217 -3500.000
21525748.641 4542228.510 -3875.000
21525708.141 4542206.477 -3000.000
21525717.438 4542187.049 -3000.000
21525684.531 4542193.738 -2500.000
21525737.172 4542155.000 -3137.542
21525750.047 4542155.000 -3378.238
21525729.813 4542155.000 -3000.000
21525703.172 4542155.000 -2501.882
21525703.063 4542155.000 -2500.000
21525702.922 4542155.000 -2497.682
21525660.922 4542181.000 -2000.000
21525673.359 4542155.000 -2000.000
21525652.297 4542155.000 -1645.556
21525637.313 4542168.260 -1500.000
21525643.656 4542155.000 -1500.000
21525621.156 4542155.000 -1366.553
21525614.750 4542155.000 -1345.935
21525540.594 4542155.000 -1161.285
21525513.125 4542155.000 -1092.904
21525367.344 4542204.180 -1092.904
21525356.953 4542209.566 -1092.636
21525475.813 4542155.000 -1000.000
21525437.281 4542155.000 -904.021
21525376.141 4542155.000 -751.772
21525359.500 4542155.000 -685.335
21525357.063 4542156.264 -685.272
21525357.063 4542155.000 -675.615
21525342.016 4542155.000 -684.962
21525346.859 4542208.719 -1092.428
21525336.922 4542155.000 -688.119
21525336.844 4542155.000 -688.169
21525336.750 4542207.871 -1092.220
21525317.438 4542155.000 -700.223
21525317.047 4542155.000 -700.462
21525326.656 4542207.023 -1092.011
21525298.500 4542155.000 -711.960
21525184.734 4542204.488 -1092.011
21525288.422 4542155.000 -713.289
21525167.641 4542259.490 -1500.000
21525174.641 4542203.639 -1091.803
21525178.578 4542284.900 -2000.000
21525140.563 4542279.832 -2000.000
21525189.516 4542310.313 -2500.000
21525200.453 4542335.723 -3000.000
21525113.500 4542300.176 -2500.000
21525211.391 4542361.133 -3500.000
21525086.422 4542320.518 -3000.000
21525361.750 4542386.475 -3875.000
21525224.906 4542386.475 -3875.000
21525432.719 4542393.234 -4250.000
21525329.656 4542411.816 -4250.000
21525540.844 4542364.512 -4250.000
21525506.219 4542394.924 -4625.000
21525632.906 4542351.840 -4625.000
21525704.719 4542280.039 -4250.000
21525752.031 4542268.213 -4625.000
21525765.531 4542237.801 -4250.000
21525640.516 4542367.891 -5000.000
21525799.328 4542256.387 -5000.000
21525782.438 4542247.094 -4625.000
21525825.281 4542155.000 -4625.000
21525828.297 4542155.000 -4678.515
21525824.672 4542155.000 -4614.432
21525812.031 4542155.000 -4390.869
21525799.328 4542165.154 -4250.000
21525803.250 4542155.000 -4250.000
21525800.453 4542155.000 -4204.923
21525787.688 4542155.000 -4000.000
21525765.531 4542192.186 -3875.000
21525779.906 4542155.000 -3875.000
21525772.766 4542155.000 -3760.364
21525756.563 4542155.000 -3500.000
21525846.484 4542155.000 -5000.000
21525471.578 4542425.334 -5000.000
21525452.156 4542409.283 -4625.000
21525297.563 4542437.160 -4625.000
21525265.453 4542462.502 -5000.000
21525251.938 4542437.160 -4625.000
21525238.422 4542411.816 -4250.000
21525213.922 4542432.092 -4625.000
21524832.953 4542384.787 -5000.000
21524889.547 4542373.805 -4625.000
21525162.406 4542401.680 -4250.000
21524786.500 4542342.551 -4625.000
21524946.156 4542362.824 -4250.000
21524444.375 4542261.455 -4625.000
21524511.953 4542246.250 -4250.000
21524376.797 4542276.660 -5000.000
21524367.500 4542243.715 -4625.000
21524358.219 4542210.770 -4250.000
21524121.688 4542182.895 -4625.000
21524194.328 4542170.223 -4250.000
21524049.031 4542195.564 -5000.000
21524047.344 4542170.223 -4625.000
21524046.328 4542155.000 -4399.757
21523969.328 4542155.000 -4625.000
21523920.047 4542155.000 -4769.131
21524006.594 4542155.000 -4516.007
21523908.594 4542155.000 -4802.639
21523841.125 4542155.000 -5000.000
21524065.906 4542155.000 -4349.838
21524105.031 4542155.000 -4250.000
21524149.172 4542155.000 -4137.375
21524203.016 4542155.000 -4000.000
21524266.969 4542157.551 -3875.000
21524252.000 4542155.000 -3875.000
21524257.922 4542155.000 -3859.902
21524281.594 4542155.000 -3799.503
21524348.922 4542177.826 -3875.000
21524342.484 4542155.000 -3615.181
21524579.531 4542231.043 -3875.000
21524367.797 4542155.000 -3544.041
21524647.109 4542215.838 -3500.000
21524693.563 4542258.074 -3875.000
21524383.469 4542155.000 -3500.000
21524428.656 4542155.000 -3333.248
21524606.594 4542175.223 -3000.000
21524697.000 4542193.807 -3000.000
21524451.047 4542155.000 -3250.643
21524518.969 4542155.000 -3000.000
21524586.422 4542155.000 -2751.058
21524746.875 4542171.775 -2500.000
21524665.281 4542155.000 -2500.000
21524784.859 4542155.000 -2119.282
21524814.078 4542155.000 -2000.000
21524899.813 4542181.000 -2000.000
21524953.000 4542234.285 -2500.000
21524873.875 4542155.000 -1756.039
21524913.109 4542155.000 -1500.000
21524964.953 4542155.000 -1337.817
21525144.844 4542196.488 -1091.229
21525154.688 4542199.639 -1091.412
21525043.781 4542155.000 -1091.229
21525072.938 4542155.000 -1000.000
21525129.828 4542155.000 -822.051
21525142.563 4542155.000 -792.388
21525145.031 4542155.000 -786.667
21525160.313 4542155.000 -751.102
21525164.531 4542202.791 -1091.595
21525161.922 4542155.000 -747.355
21525179.391 4542155.000 -737.095
21525180.719 4542155.000 -736.310
21525199.078 4542155.000 -725.555
21525200.125 4542155.000 -724.935
21525006.172 4542287.572 -3000.000
21525059.344 4542340.859 -3500.000
21525110.875 4542371.270 -3875.000
21525002.750 4542351.842 -3875.000
21524740.031 4542300.313 -4250.000

POLYGONS 258 1032
3 18 75 19
3 2 3 4
3 161 160 159
3 154 153 151
3 4 61 8
3 166 133 134
3 26 25 20
3 128 127 125
3 96 95 71
3 88 89 85
3 48 49 46
3 141 140 137
3 62 146 147
3 82 81 79
3 102 103 105
3 8 61 63
3 150 59 151
3 105 169 104
3 14 22 10
3 47 48 46
3 11 66 68
3 169 134 131
3 77 21 75
3 166 66 67
3 59 3 55
3 94 78 73
3 58 164 57
3 15 16 72
3 13 14 9
3 167 166 168
3 43 44 40
3 131 129 107
3 3 52 55
3 11 13 9
3 136 133 137
3 105 167 168
3 104 169 107
3 78 79 76
3 99 103 100
3 28 29 24
3 66 166 167
3 107 169 131
3 65 63 62
3 72 18 15
3 36 37 34
3 105 168 169
3 38 39 3
3 161 159 60
3 25 23 20
3 42 43 40
3 97 96 98
3 18 17 15
3 33 35 34
3 168 134 169
3 3 40 41
3 54 55 52
3 94 95 96
3 94 73 95
3 23 24 22
3 53 54 52
3 106 104 107
3 122 121 112
3 87 88 85
3 78 74 73
3 73 74 72
3 158 157 152
3 136 135 133
3 97 98 100
3 45 47 46
3 67 65 165
3 150 149 59
3 86 87 85
3 138 165 147
3 117 119 113
3 6 34 1
3 102 100 103
3 77 89 21
3 66 12 64
3 40 46 41
3 37 38 3
3 108 101 106
3 138 142 137
3 44 45 40
3 7 0 8
3 139 136 137
3 155 154 151
3 133 165 138
3 16 11 68
3 89 20 21
3 130 128 129
3 166 67 165
3 133 138 137
3 66 64 67
3 12 63 64
3 81 80 79
3 20 23 22
3 65 147 165
3 101 104 106
3 80 85 77
3 145 144 142
3 142 147 146
3 90 91 89
3 146 145 142
3 59 55 57
3 73 70 95
3 29 30 24
3 74 18 72
3 39 42 40
3 162 161 60
3 112 110 125
3 18 19 17
3 143 141 142
3 66 11 12
3 101 97 100
3 3 49 52
3 21 19 75
3 133 166 165
3 72 16 70
3 65 62 147
3 20 13 19
3 101 102 104
3 35 36 34
3 105 103 167
3 48 50 49
3 99 69 103
3 110 129 125
3 108 106 109
3 113 111 114
3 96 99 98
3 11 9 7
3 115 114 111
3 157 156 152
3 67 64 65
3 106 110 109
3 144 143 142
3 28 24 23
3 163 60 57
3 121 115 111
3 54 56 55
3 70 16 68
3 39 40 3
3 15 11 16
3 64 63 65
3 148 145 146
3 124 112 125
3 62 59 146
3 168 166 134
3 12 7 8
3 56 58 57
3 6 1 5
3 119 120 113
3 79 80 76
3 8 63 12
3 78 76 74
3 21 20 19
3 41 46 49
3 107 129 110
3 34 37 3
3 20 22 14
3 27 28 23
3 74 75 18
3 59 152 151
3 7 5 0
3 3 41 49
3 113 108 111
3 0 5 1
3 61 59 62
3 84 86 85
3 127 126 125
3 149 148 59
3 71 70 68
3 97 94 96
3 118 116 114
3 17 13 15
3 10 6 5
3 10 5 9
3 126 124 125
3 68 66 69
3 4 3 61
3 88 90 89
3 156 155 151
3 102 105 104
3 77 75 76
3 1 3 2
3 156 151 152
3 138 147 142
3 45 46 40
3 115 118 114
3 77 85 89
3 34 3 1
3 135 132 133
3 92 26 20
3 7 9 5
3 69 66 167
3 141 137 142
3 8 0 4
3 50 51 49
3 68 69 71
3 69 167 103
3 116 117 113
3 123 122 112
3 91 92 20
3 33 34 31
3 13 11 15
3 11 7 12
3 107 110 106
3 163 162 60
3 91 20 89
3 83 84 80
3 3 59 61
3 132 130 131
3 140 139 137
3 74 76 75
3 84 85 80
3 108 109 111
3 111 109 112
3 148 146 59
3 59 57 60
3 0 1 2
3 13 20 14
3 121 111 112
3 158 152 159
3 134 133 131
3 59 60 159
3 14 10 9
3 98 99 100
3 82 79 93
3 63 61 62
3 59 159 152
3 51 53 52
3 160 158 159
3 128 125 129
3 32 33 31
3 72 70 73
3 95 70 71
3 114 116 113
3 22 24 10
3 132 131 133
3 109 110 112
3 51 52 49
3 19 13 17
3 101 100 102
3 81 83 80
3 10 24 6
3 30 31 24
3 130 129 131
3 25 27 23
3 24 31 6
3 164 163 57
3 80 77 76
3 30 32 31
3 124 123 112
3 55 56 57
3 0 2 4
3 71 99 96
3 31 34 6
3 153 150 151
3 71 69 99

POINT_DATA 170
COLOR_SCALARS GocadColor 4
1 0.270588 0 1
1 0.270588 0 1
1 0.270588 0 1
1 0.270588 0 1
1 0.270588 0 1
1 0.270588 0 1
1 0.270588 0 1
1 0.270588 0 1
1 0.270588 0 1
1 0.270588 0 1
1 0.270588 0 1
1 0.270588 0 1
1 0.270588 0 1
1 0.270588 0 1
1 0.270588 0 1
1 0.270588 0 1
1 0.270588 0 1
1 0.270588 0 1
1 0.270588 0 1
1 0.270588 0 1
1 0.270588 0 1
1 0.270588 0 1
1 0.270588 0 1
1 0.270588 0 1
1 0.270588 0 1
1 0.270588 0 1
1 0.270588 0 1
1 0.270588 0 1
1 0.270588 0 1
1 0.270588 0 1
1 0.270588 0 1
1 0.270588 0 1
1 0.270588 0 1
1 0.270588 0 1
1 0.270588 0 1
1 0.270588 0 1
1 0.270588 0 1
1 0.270588 0 1
1 0.270588 0 1
1 0.270588 0 1
1 0.270588 0 1
1 0.270588 0 1
1 0.270588 0 1
1 0.270588 0 1
1 0.270588 0 1
1 0.270588 0 1
1 0.270588 0 1
1 0.270588 0 1
1 0.270588 0 1
1 0.270588 0 1
1 0.270588 0 1
1 0.270588 0 1
1 0.270588 0 1
1 0.270588 0 1
1 0.270588 0 1
1 0.270588 0 1
1 0.270588 0 1
1 0.270588 0 1
1 0.270588 0 1
1 0.270588 0 1
1 0.270588 0 1
1 0.270588 0 1
1 0.270588 0 1
1 0.270588 0 1
1 0.270588 0 1
1 0.270588 0 1
1 0.270588 0 1
1 0.270588 0 1
1 0.270588 0 1
1 0.270588 0 1
1 0.270588 0 1
1 0.270588 0 1
1 0.270588 0 1
1 0.270588 0 1
1 0.270588 0 1
1 0.270588 0 1
1 0.270588 0 1
1 0.270588 0 1
1 0.270588 0 1
1 0.270588 0 1
1 0.270588 0 1
1 0.270588 0 1
1 0.270588 0 1
1 0.270588 0 1
1 0.270588 0 1
1 0.270588 0 1
1 0.270588 0 1
1 0.270588 0 1
1 0.270588 0 1
1 0.270588 0 1
1 0.270588 0 1
1 0.270588 0 1
1 0.270588 0 1
1 0.270588 0 1
1 0.270588 0 1
1 0.270588 0 1
1 0.270588 0 1
1 0.270588 0 1
1 0.270588 0 1
1 0.270588 0 1
1 0.270588 0 1
1 0.270588 0 1
1 0.270588 0 1
1 0.270588 0 1
1 0.270588 0 1
1 0.270588 0 1
1 0.270588 0 1
1 0.270588 0 1
1 0.270588 0 1
1 0.270588 0 1
1 0.270588 0 1
1 0.270588 0 1
1 0.270588 0 1
1 0.270588 0 1
1 0.270588 0 1
1 0.270588 0 1
1 0.270588 0 1
1 0.270588 0 1
1 0.270588 0 1
1 0.270588 0 1
1 0.270588 0 1
1 0.270588 0 1
1 0.270588 0 1
1 0.270588 0 1
1 0.270588 0 1
1 0.270588 0 1
1 0.270588 0 1
1 0.270588 0 1
1 0.270588 0 1
1 0.270588 0 1
1 0.270588 0 1
1 0.270588 0 1
1 0.270588 0 1
1 0.270588 0 1
1 0.270588 0 1
1 0.270588 0 1
1 0.270588 0 1
1 0.270588 0 1
1 0.270588 0 1
1 0.270588 0 1
1 0.270588 0 1
1 0.270588 0 1
1 0.270588 0 1
1 0.270588 0 1
1 0.270588 0 1
1 0.270588 0 1
1 0.270588 0 1
1 0.270588 0 1
1 0.270588 0 1
1 0.270588 0 1
1 0.270588 0 1
1 0.270588 0 1
1 0.270588 0 1
1 0.270588 0 1
1 0.270588 0 1
1 0.270588 0 1
1 0.270588 0 1
1 0.270588 0 1
1 0.270588 0 1
1 0.270588 0 1
1 0.270588 0 1
1 0.270588 0 1
1 0.270588 0 1
1 0.270588 0 1
1 0.270588 0 1
1 0.270588 0 1
1 0.270588 0 1
1 0.270588 0 1
1 0.270588 0 1
1 0.270588 0 1

