# vtk DataFile Version 3.0
Gocad TSurf to VTK
ASCII
DATASET POLYDATA
POINTS 2658 float
21522420.500 4545288.234 -1217.845
21522635.156 4545278.898 -1217.845
21522455.625 4545250.305 -735.690
21522598.719 4545244.082 -735.690
21522433.156 4545248.371 -736.180
21522671.594 4545313.719 -1700.000
21522385.391 4545326.164 -1700.000
21522646.406 4545279.867 -1217.600
21522621.203 4545246.016 -735.199
21522657.625 4545280.832 -1217.354
21522643.672 4545247.945 -734.709
21522668.875 4545281.797 -1217.109
21522666.141 4545249.879 -734.219
21522680.109 4545282.766 -1216.864
21522689.875 4545280.602 -1216.641
21522688.625 4545251.813 -733.729
21522699.656 4545278.434 -1216.418
21522708.172 4545247.480 -733.283
21522709.438 4545276.270 -1216.195
21522727.719 4545243.148 -732.837
21522719.219 4545274.102 -1215.972
21522747.281 4545238.820 -732.391
21523063.563 4545245.281 -1700.000
21523013.188 4545222.773 -1215.972
21522769.594 4545332.383 -1925.000
21522659.156 4545349.492 -1925.000
21523063.563 4545281.055 -1925.000
21522867.578 4545351.047 -2150.000
21523127.344 4545257.727 -1925.000
21523063.563 4545316.828 -2150.000
21523573.750 4545027.523 -1700.000
21523509.969 4545094.406 -1925.000
21523112.391 4545174.547 -1213.826
21523495.031 4545011.227 -1213.826
21523103.219 4545180.152 -1214.373
21523142.875 4545115.023 -728.746
21523094.063 4545185.758 -1214.496
21523124.547 4545126.238 -728.992
21523084.891 4545191.367 -1214.619
21523106.219 4545137.453 -729.239
21523075.719 4545196.973 -1214.742
21523087.875 4545148.664 -729.485
21523066.547 4545202.578 -1214.865
21523069.531 4545159.875 -729.731
21523055.656 4545207.086 -1214.984
21523047.750 4545168.891 -729.968
21523044.766 4545211.594 -1215.239
21523025.969 4545177.906 -730.479
21523033.875 4545216.102 -1215.494
21523004.172 4545186.922 -730.989
21523022.969 4545220.609 -1215.750
21522982.375 4545195.938 -731.499
21522962.828 4545200.270 -731.945
21522974.469 4545157.742 -246.483
21522941.797 4545171.266 -247.249
21523007.156 4545144.219 -245.718
21522988.359 4545110.531 239.043
21522944.781 4545128.563 238.022
21523039.844 4545130.699 -244.953
21523031.938 4545092.504 240.063
21523072.531 4545117.176 -244.596
21523075.516 4545074.473 240.538
21523100.031 4545100.355 -244.227
21523112.188 4545052.047 241.031
21523127.531 4545083.535 -243.858
21523148.859 4545029.621 241.523
21523155.031 4545066.719 -243.489
21523185.531 4545007.195 242.015
21523182.547 4545049.895 -243.119
21523222.203 4544984.766 242.507
21523210.047 4545033.074 -241.478
21523161.219 4545103.813 -727.652
21523258.875 4544962.340 244.696
21523337.594 4544978.637 -241.478
21523416.313 4544994.930 -727.652
21523295.547 4544939.914 245.279
21523365.094 4544961.816 -241.041
21523332.219 4544917.488 244.542
21523392.594 4544944.996 -241.593
21523434.656 4544983.719 -727.361
21523372.875 4544889.910 243.578
21523423.094 4544924.313 -242.317
21523452.984 4544972.508 -727.729
21523413.531 4544862.332 242.613
21523453.594 4544903.629 -243.040
21523473.313 4544958.719 -728.211
21523454.188 4544834.754 241.648
21523484.078 4544882.945 -243.764
21523493.641 4544944.930 -728.694
21523494.844 4544807.176 240.684
21523514.563 4544862.262 -244.487
21523513.969 4544931.141 -729.176
21523545.063 4544841.578 -245.211
21523554.625 4544903.563 -730.140
21523535.500 4544779.598 239.719
21523575.563 4544820.895 -245.934
21523574.953 4544889.773 -730.623
21523576.156 4544752.020 238.755
21523606.047 4544800.211 -246.657
21523595.281 4544875.984 -731.105
21523616.813 4544724.441 237.790
21523636.531 4544779.527 -247.381
21523615.609 4544862.195 -731.587
21523657.469 4544696.863 236.825
21523728.313 4544717.313 -247.381
21523799.156 4544737.758 -731.587
21523698.125 4544669.285 235.861
21523758.797 4544696.625 -248.104
21523738.781 4544641.707 234.896
21523789.297 4544675.945 -248.828
21523819.469 4544723.969 -732.070
21523779.422 4544614.125 233.931
21523819.781 4544655.258 -249.552
21523839.813 4544710.180 -732.552
21523820.078 4544586.547 232.967
21523850.266 4544634.574 -250.275
21523860.125 4544696.391 -733.034
21523860.734 4544558.969 232.002
21523880.750 4544613.891 -250.999
21523880.453 4544682.602 -733.517
21523911.250 4544593.207 -251.722
21523921.109 4544655.023 -734.481
21523901.391 4544531.391 231.037
21523941.750 4544572.523 -252.445
21523941.438 4544641.234 -734.964
21523942.047 4544503.813 230.073
21524005.516 4544516.527 -252.445
21524068.969 4544529.242 -734.964
21523982.703 4544476.234 229.108
21524036.000 4544495.844 -253.169
21524023.359 4544448.656 228.144
21524066.500 4544475.160 -253.892
21524089.313 4544515.453 -735.446
21524064.016 4544421.078 227.179
21524096.984 4544454.477 -254.616
21524109.625 4544501.664 -735.928
21524104.672 4544393.500 226.204
21524127.484 4544433.793 -255.347
21524129.969 4544487.875 -736.410
21524145.328 4544365.922 223.565
21524157.969 4544413.109 -257.326
21524150.281 4544474.086 -736.898
21524186.328 4544351.027 221.724
21524188.719 4544401.938 -258.707
21524170.625 4544460.297 -738.217
21524227.313 4544336.137 219.882
21524219.469 4544390.770 -260.088
21524211.609 4544445.406 -740.059
21524267.688 4544348.773 -260.088
21524308.047 4544361.414 -740.059
21524268.313 4544321.242 218.040
21524298.438 4544337.602 -261.470
21524309.297 4544306.352 216.199
21524329.172 4544326.438 -262.851
21524328.547 4544353.965 -740.980
21524350.297 4544291.457 214.357
21524359.922 4544315.266 -264.232
21524349.031 4544346.520 -741.901
21524391.281 4544276.566 212.516
21524390.656 4544304.098 -265.613
21524369.531 4544339.070 -742.821
21524432.281 4544261.672 210.674
21524421.406 4544292.926 -266.995
21524390.031 4544331.625 -743.742
21524446.984 4544287.723 -267.885
21524427.594 4544320.711 -745.256
21524466.391 4544254.734 209.487
21524495.203 4544270.613 -267.885
21524524.031 4544286.492 -745.256
21524500.500 4544247.801 208.301
21524520.781 4544265.414 -268.775
21524530.594 4544228.641 104.736
21524545.344 4544243.582 -270.696
21524541.078 4544283.023 -745.850
21524536.125 4544225.117 85.707
21524536.125 4544225.035 85.058
21524539.813 4544222.766 72.987
21524557.641 4544211.418 11.614
21524569.906 4544221.754 -272.617
21524557.453 4544268.469 -747.130
21524567.859 4544204.914 -23.528
21524569.594 4544203.813 -29.497
21524582.094 4544195.848 -72.536
21524594.453 4544199.926 -274.538
21524573.813 4544253.918 -748.411
21524592.906 4544188.961 -109.782
21524595.859 4544186.969 -118.461
21524604.656 4544181.039 -144.321
21524615.172 4544173.941 -175.269
21524619.016 4544178.098 -276.459
21524606.563 4544224.813 -750.973
21524621.172 4544170.020 -194.410
21524655.641 4544151.082 -276.459
21524699.797 4544156.059 -750.973
21524664.469 4544146.238 -297.453
21524667.641 4544144.445 -304.427
21524683.969 4544133.957 -350.213
21524692.109 4544128.734 -373.016
21524716.172 4544141.508 -752.254
21524733.969 4544168.398 -1225.486
21524695.969 4544126.258 -383.827
21524699.500 4544123.984 -393.729
21524712.156 4544115.875 -429.116
21524715.219 4544113.922 -437.915
21524732.531 4544126.953 -753.347
21524742.156 4544161.121 -1226.127
21524721.344 4544110.027 -455.449
21524736.188 4544100.590 -497.939
21524748.906 4544112.398 -754.228
21524750.328 4544153.844 -1226.673
21524744.156 4544095.527 -520.722
21524765.281 4544097.848 -755.110
21524766.703 4544139.289 -1227.555
21524753.969 4544089.305 -548.733
21524764.750 4544082.449 -579.575
21524787.016 4544087.121 -755.884
21524777.563 4544133.930 -1227.942
21524779.125 4544076.648 -594.542
21524790.016 4544072.250 -605.894
21524800.984 4544065.953 -631.981
21524806.859 4544062.555 -645.677
21524811.859 4544059.754 -658.350
21524848.859 4544039.301 -755.884
21524903.703 4544036.414 -1227.942
21524854.984 4544035.918 -772.022
21524876.063 4544024.289 -827.779
21524895.109 4544016.621 -855.297
21524914.563 4544031.051 -1228.329
21524936.297 4544050.715 -1700.000
21524897.531 4544015.645 -858.815
21524914.563 4544008.789 -883.405
21524925.438 4544025.688 -1228.715
21524917.563 4544007.582 -887.745
21524932.797 4544001.449 -909.752
21524936.297 4544020.324 -1229.102
21524936.297 4544000.039 -914.814
21524947.156 4544014.961 -1229.489
21524940.031 4543998.539 -920.215
21524953.844 4543992.977 -940.178
21525003.047 4543977.422 -977.066
21525034.750 4543967.402 -1000.815
21525071.609 4543955.539 -1025.265
21525087.156 4543963.633 -1229.489
21525081.422 4543951.648 -1037.792
21525098.016 4543958.270 -1229.875
21525122.953 4543982.277 -1700.000
21525088.297 4543948.910 -1046.609
21525095.641 4543948.211 -1037.921
21525107.563 4543957.961 -1230.012
21525101.063 4543947.691 -1031.491
21525109.203 4543946.914 -1021.835
21525117.109 4543957.656 -1230.148
21525111.469 4543946.699 -1019.160
21525114.453 4543946.418 -1015.624
21525123.469 4543945.555 -1004.945
21525126.656 4543957.352 -1230.284
21525127.156 4543945.203 -1000.584
21525128.484 4543945.078 -998.998
21525136.219 4543957.043 -1230.420
21525133.266 4543944.621 -993.341
21525143.234 4543943.672 -981.527
21525145.672 4543954.094 -1230.677
21525147.672 4543942.371 -983.452
21525152.313 4543941.008 -985.475
21525157.422 4543939.504 -987.701
21525224.563 4543921.148 -1005.676
21525276.313 4543916.762 -1230.677
21525297.156 4543932.500 -1700.000
21525254.438 4543912.980 -1013.663
21525266.828 4543909.594 -1016.980
21525270.609 4543908.484 -1018.601
21525275.453 4543907.070 -1020.674
21525285.781 4543913.813 -1230.935
21525280.734 4543905.523 -1022.921
21525289.063 4543903.082 -1026.493
21525295.234 4543910.859 -1231.192
21525294.406 4543901.520 -1028.794
21525294.500 4543900.473 -1037.136
21525295.750 4543899.477 -1231.725
21525294.953 4543896.121 -1078.092
21525295.422 4543891.625 -1120.389
21525303.969 4543889.398 -1140.427
21525342.938 4543879.258 -1231.725
21525356.688 4543875.680 -1263.944
21525363.453 4543873.914 -1279.830
21525384.266 4543895.172 -1700.000
21525358.766 4543934.664 -1925.000
21525366.641 4543867.891 -1336.230
21525372.266 4543863.750 -1374.615
21525422.063 4543824.957 -1700.000
[...]
POINT_DATA 2658
COLOR_SCALARS GocadColor 4
0.098039 0.8 0.87451 1
0.098039 0.8 0.87451 1
0.098039 0.8 0.87451 1
0.098039 0.8 0.87451 1
0.098039 0.8 0.87451 1
0.098039 0.8 0.87451 1
0.098039 0.8 0.87451 1
0.098039 0.8 0.87451 1
0.098039 0.8 0.87451 1
0.098039 0.8 0.87451 1
0.098039 0.8 0.87451 1
0.098039 0.8 0.87451 1
0.098039 0.8 0.87451 1
0.098039 0.8 0.87451 1
0.098039 0.8 0.87451 1
0.098039 0.8 0.87451 1
0.098039 0.8 0.87451 1
0.098039 0.8 0.87451 1
0.098039 0.8 0.87451 1
0.098039 0.8 0.87451 1
0.098039 0.8 0.87451 1
0.098039 0.8 0.87451 1
0.098039 0.8 0.87451 1
0.098039 0.8 0.87451 1
0.098039 0.8 0.87451 1
0.098039 0.8 0.87451 1
0.098039 0.8 0.87451 1
0.098039 0.8 0.87451 1
0.098039 0.8 0.87451 1
0.098039 0.8 0.87451 1
0.098039 0.8 0.87451 1
0.098039 0.8 0.87451 1
0.098039 0.8 0.87451 1
0.098039 0.8 0.87451 1
0.098039 0.8 0.87451 1
0.098039 0.8 0.87451 1
0.098039 0.8 0.87451 1
0.098039 0.8 0.87451 1
0.098039 0.8 0.87451 1
0.098039 0.8 0.87451 1
0.098039 0.8 0.87451 1
0.098039 0.8 0.87451 1
0.098039 0.8 0.87451 1
0.098039 0.8 0.87451 1
0.098039 0.8 0.87451 1
0.098039 0.8 0.87451 1
0.098039 0.8 0.87451 1
0.098039 0.8 0.87451 1
0.098039 0.8 0.87451 1
0.098039 0.8 0.87451 1
0.098039 0.8 0.87451 1
0.098039 0.8 0.87451 1
0.098039 0.8 0.87451 1
0.098039 0.8 0.87451 1
0.098039 0.8 0.87451 1
0.098039 0.8 0.87451 1
0.098039 0.8 0.87451 1
0.098039 0.8 0.87451 1
0.098039 0.8 0.87451 1
0.098039 0.8 0.87451 1
0.098039 0.8 0.87451 1
0.098039 0.8 0.87451 1
0.098039 0.8 0.87451 1
0.098039 0.8 0.87451 1
0.098039 0.8 0.87451 1
0.098039 0.8 0.87451 1
0.098039 0.8 0.87451 1
0.098039 0.8 0.87451 1
0.098039 0.8 0.87451 1
0.098039 0.8 0.87451 1
0.098039 0.8 0.87451 1
0.098039 0.8 0.87451 1
0.098039 0.8 0.87451 1
0.098039 0.8 0.87451 1
0.098039 0.8 0.87451 1
0.098039 0.8 0.87451 1
0.098039 0.8 0.87451 1
0.098039 0.8 0.87451 1
0.098039 0.8 0.87451 1
0.098039 0.8 0.87451 1
0.098039 0.8 0.87451 1
0.098039 0.8 0.87451 1
0.098039 0.8 0.87451 1
0.098039 0.8 0.87451 1
0.098039 0.8 0.87451 1
0.098039 0.8 0.87451 1
0.098039 0.8 0.87451 1
0.098039 0.8 0.87451 1
0.098039 0.8 0.87451 1
0.098039 0.8 0.87451 1
0.098039 0.8 0.87451 1
0.098039 0.8 0.87451 1
0.098039 0.8 0.87451 1
0.098039 0.8 0.87451 1
0.098039 0.8 0.87451 1
0.098039 0.8 0.87451 1
0.098039 0.8 0.87451 1
0.098039 0.8 0.87451 1
0.098039 0.8 0.87451 1
0.098039 0.8 0.87451 1
0.098039 0.8 0.87451 1
0.098039 0.8 0.87451 1
0.098039 0.8 0.87451 1
0.098039 0.8 0.87451 1
0.098039 0.8 0.87451 1
0.098039 0.8 0.87451 1
0.098039 0.8 0.87451 1
0.098039 0.8 0.87451 1
0.098039 0.8 0.87451 1
0.098039 0.8 0.87451 1
0.098039 0.8 0.87451 1
0.098039 0.8 0.87451 1
0.098039 0.8 0.87451 1
0.098039 0.8 0.87451 1
0.098039 0.8 0.87451 1
0.098039 0.8 0.87451 1
0.098039 0.8 0.87451 1
0.098039 0.8 0.87451 1
0.098039 0.8 0.87451 1
0.098039 0.8 0.87451 1
0.098039 0.8 0.87451 1
0.098039 0.8 0.87451 1
0.098039 0.8 0.87451 1
0.098039 0.8 0.87451 1
0.098039 0.8 0.87451 1
0.098039 0.8 0.87451 1
0.098039 0.8 0.87451 1
0.098039 0.8 0.87451 1
0.098039 0.8 0.87451 1
0.098039 0.8 0.87451 1
0.098039 0.8 0.87451 1
0.098039 0.8 0.87451 1
0.098039 0.8 0.87451 1
0.098039 0.8 0.87451 1
0.098039 0.8 0.87451 1
0.098039 0.8 0.87451 1
0.098039 0.8 0.87451 1
0.098039 0.8 0.87451 1
0.098039 0.8 0.87451 1
0.098039 0.8 0.87451 1
0.098039 0.8 0.87451 1
0.098039 0.8 0.87451 1
0.098039 0.8 0.87451 1
0.098039 0.8 0.87451 1
0.098039 0.8 0.87451 1
0.098039 0.8 0.87451 1
0.098039 0.8 0.87451 1
0.098039 0.8 0.87451 1
0.098039 0.8 0.87451 1
0.098039 0.8 0.87451 1
0.098039 0.8 0.87451 1
0.098039 0.8 0.87451 1
0.098039 0.8 0.87451 1
0.098039 0.8 0.87451 1
0.098039 0.8 0.87451 1
0.098039 0.8 0.87451 1
0.098039 0.8 0.87451 1
0.098039 0.8 0.87451 1
0.098039 0.8 0.87451 1
0.098039 0.8 0.87451 1
0.098039 0.8 0.87451 1
0.098039 0.8 0.87451 1
0.098039 0.8 0.87451 1
0.098039 0.8 0.87451 1
0.098039 0.8 0.87451 1
0.098039 0.8 0.87451 1
0.098039 0.8 0.87451 1
0.098039 0.8 0.87451 1
0.098039 0.8 0.87451 1
0.098039 0.8 0.87451 1
0.098039 0.8 0.87451 1
0.098039 0.8 0.87451 1
0.098039 0.8 0.87451 1
0.098039 0.8 0.87451 1
0.098039 0.8 0.87451 1
0.098039 0.8 0.87451 1
0.098039 0.8 0.87451 1
0.098039 0.8 0.87451 1
0.098039 0.8 0.87451 1
0.098039 0.8 0.87451 1
0.098039 0.8 0.87451 1
0.098039 0.8 0.87451 1
0.098039 0.8 0.87451 1
0.098039 0.8 0.87451 1
0.098039 0.8 0.87451 1
0.098039 0.8 0.87451 1
0.098039 0.8 0.87451 1
0.098039 0.8 0.87451 1
0.098039 0.8 0.87451 1
0.098039 0.8 0.87451 1
0.098039 0.8 0.87451 1
0.098039 0.8 0.87451 1
0.098039 0.8 0.87451 1
0.098039 0.8 0.87451 1
0.098039 0.8 0.87451 1
0.098039 0.8 0.87451 1
0.098039 0.8 0.87451 1
0.098039 0.8 0.87451 1
0.098039 0.8 0.87451 1
0.098039 0.8 0.87451 1
0.098039 0.8 0.87451 1
0.098039 0.8 0.87451 1
0.098039 0.8 0.87451 1
0.098039 0.8 0.87451 1
0.098039 0.8 0.87451 1
0.098039 0.8 0.87451 1
0.098039 0.8 0.87451 1
0.098039 0.8 0.87451 1
0.098039 0.8 0.87451 1
0.098039 0.8 0.87451 1
0.098039 0.8 0.87451 1
0.098039 0.8 0.87451 1
0.098039 0.8 0.87451 1
0.098039 0.8 0.87451 1
0.098039 0.8 0.87451 1
0.098039 0.8 0.87451 1
0.098039 0.8 0.87451 1
0.098039 0.8 0.87451 1
0.098039 0.8 0.87451 1
0.098039 0.8 0.87451 1
0.098039 0.8 0.87451 1
0.098039 0.8 0.87451 1
0.098039 0.8 0.87451 1
0.098039 0.8 0.87451 1
0.098039 0.8 0.87451 1
0.098039 0.8 0.87451 1
0.098039 0.8 0.87451 1
0.098039 0.8 0.87451 1
0.098039 0.8 0.87451 1
0.098039 0.8 0.87451 1
0.098039 0.8 0.87451 1
0.098039 0.8 0.87451 1
0.098039 0.8 0.87451 1
0.098039 0.8 0.87451 1
0.098039 0.8 0.87451 1
0.098039 0.8 0.87451 1
0.098039 0.8 0.87451 1
0.098039 0.8 0.87451 1
0.098039 0.8 0.87451 1
0.098039 0.8 0.87451 1
0.098039 0.8 0.87451 1
0.098039 0.8 0.87451 1
0.098039 0.8 0.87451 1
0.098039 0.8 0.87451 1
0.098039 0.8 0.87451 1
0.098039 0.8 0.87451 1
0.098039 0.8 0.87451 1
0.098039 0.8 0.87451 1
0.098039 0.8 0.87451 1
0.098039 0.8 0.87451 1
0.098039 0.8 0.87451 1
0.098039 0.8 0.87451 1
0.098039 0.8 0.87451 1
0.098039 0.8 0.87451 1
0.098039 0.8 0.87451 1
0.098039 0.8 0.87451 1
0.098039 0.8 0.87451 1
0.098039 0.8 0.87451 1
0.098039 0.8 0.87451 1
0.098039 0.8 0.87451 1
0.098039 0.8 0.87451 1
0.098039 0.8 0.87451 1
0.098039 0.8 0.87451 1
0.098039 0.8 0.87451 1
0.098039 0.8 0.87451 1
0.098039 0.8 0.87451 1
0.098039 0.8 0.87451 1
0.098039 0.8 0.87451 1
0.098039 0.8 0.87451 1
0.098039 0.8 0.87451 1
0.098039 0.8 0.87451 1
0.098039 0.8 0.87451 1
0.098039 0.8 0.87451 1
0.098039 0.8 0.87451 1
0.098039 0.8 0.87451 1
0.098039 0.8 0.87451 1
0.098039 0.8 0.87451 1
0.098039 0.8 0.87451 1
0.098039 0.8 0.87451 1
0.098039 0.8 0.87451 1
0.098039 0.8 0.87451 1
0.098039 0.8 0.87451 1
0.098039 0.8 0.87451 1
0.098039 0.8 0.87451 1
0.098039 0.8 0.87451 1
0.098039 0.8 0.87451 1
0.098039 0.8 0.87451 1
0.098039 0.8 0.87451 1
0.098039 0.8 0.87451 1
0.098039 0.8 0.87451 1
0.098039 0.8 0.87451 1
0.098039 0.8 0.87451 1
0.098039 0.8 0.87451 1
0.098039 0.8 0.87451 1
0.098039 0.8 0.87451 1
0.098039 0.8 0.87451 1
0.098039 0.8 0.87451 1
0.098039 0.8 0.87451 1
0.098039 0.8 0.87451 1
0.098039 0.8 0.87451 1
0.098039 0.8 0.87451 1
0.098039 0.8 0.87451 1
0.098039 0.8 0.87451 1
0.098039 0.8 0.87451 1
0.098039 0.8 0.87451 1
0.098039 0.8 0.87451 1
0.098039 0.8 0.87451 1
0.098039 0.8 0.87451 1
0.098039 0.8 0.87451 1
0.098039 0.8 0.87451 1
0.098039 0.8 0.87451 1
0.098039 0.8 0.87451 1
0.098039 0.8 0.87451 1
0.098039 0.8 0.87451 1
0.098039 0.8 0.87451 1
0.098039 0.8 0.87451 1
0.098039 0.8 0.87451 1
0.098039 0.8 0.87451 1
0.098039 0.8 0.87451 1
0.098039 0.8 0.87451 1
0.098039 0.8 0.87451 1
0.098039 0.8 0.87451 1
0.098039 0.8 0.87451 1
0.098039 0.8 0.87451 1
0.098039 0.8 0.87451 1
0.098039 0.8 0.87451 1
0.098039 0.8 0.87451 1
0.098039 0.8 0.87451 1
0.098039 0.8 0.87451 1
0.098039 0.8 0.87451 1
0.098039 0.8 0.87451 1
0.098039 0.8 0.87451 1
0.098039 0.8 0.87451 1
0.098039 0.8 0.87451 1
0.098039 0.8 0.87451 1
0.098039 0.8 0.87451 1
0.098039 0.8 0.87451 1
0.098039 0.8 0.87451 1
0.098039 0.8 0.87451 1
0.098039 0.8 0.87451 1
0.098039 0.8 0.87451 1
0.098039 0.8 0.87451 1
0.098039 0.8 0.87451 1
0.098039 0.8 0.87451 1
0.098039 0.8 0.87451 1
0.098039 0.8 0.87451 1
0.098039 0.8 0.87451 1
0.098039 0.8 0.87451 1
0.098039 0.8 0.87451 1
0.098039 0.8 0.87451 1
0.098039 0.8 0.87451 1
0.098039 0.8 0.87451 1
0.098039 0.8 0.87451 1
0.098039 0.8 0.87451 1
0.098039 0.8 0.87451 1
0.098039 0.8 0.87451 1
0.098039 0.8 0.87451 1
0.098039 0.8 0.87451 1
0.098039 0.8 0.87451 1
0.098039 0.8 0.87451 1
0.098039 0.8 0.87451 1
0.098039 0.8 0.87451 1
0.098039 0.8 0.87451 1
0.098039 0.8 0.87451 1
0.098039 0.8 0.87451 1
0.098039 0.8 0.87451 1
0.098039 0.8 0.87451 1
0.098039 0.8 0.87451 1
0.098039 0.8 0.87451 1
0.098039 0.8 0.87451 1
0.098039 0.8 0.87451 1
0.098039 0.8 0.87451 1
0.098039 0.8 0.87451 1
0.098039 0.8 0.87451 1
0.098039 0.8 0.87451 1
0.098039 0.8 0.87451 1
0.098039 0.8 0.87451 1
0.098039 0.8 0.87451 1
0.098039 0.8 0.87451 1
0.098039 0.8 0.87451 1
0.098039 0.8 0.87451 1
0.098039 0.8 0.87451 1
0.098039 0.8 0.87451 1
0.098039 0.8 0.87451 1
0.098039 0.8 0.87451 1
0.098039 0.8 0.87451 1
0.098039 0.8 0.87451 1
0.098039 0.8 0.87451 1
0.098039 0.8 0.87451 1
0.098039 0.8 0.87451 1
0.098039 0.8 0.87451 1
0.098039 0.8 0.87451 1
0.098039 0.8 0.87451 1
0.098039 0.8 0.87451 1
0.098039 0.8 0.87451 1
0.098039 0.8 0.87451 1
0.098039 0.8 0.87451 1
0.098039 0.8 0.87451 1
0.098039 0.8 0.87451 1
0.098039 0.8 0.87451 1
0.098039 0.8 0.87451 1
0.098039 0.8 0.87451 1
0.098039 0.8 0.87451 1
0.098039 0.8 0.87451 1
0.098039 0.8 0.87451 1
0.098039 0.8 0.87451 1
0.098039 0.8 0.87451 1
0.098039 0.8 0.87451 1
0.098039 0.8 0.87451 1
0.098039 0.8 0.87451 1
0.098039 0.8 0.87451 1
0.098039 0.8 0.87451 1
0.098039 0.8 0.87451 1
0.098039 0.8 0.87451 1
0.098039 0.8 0.87451 1
0.098039 0.8 0.87451 1
0.098039 0.8 0.87451 1
0.098039 0.8 0.87451 1
0.098039 0.8 0.87451 1
0.098039 0.8 0.87451 1
0.098039 0.8 0.87451 1
0.098039 0.8 0.87451 1
0.098039 0.8 0.87451 1
0.098039 0.8 0.87451 1
0.098039 0.8 0.87451 1
0.098039 0.8 0.87451 1
0.098039 0.8 0.87451 1
0.098039 0.8 0.87451 1
0.098039 0.8 0.87451 1
0.098039 0.8 0.87451 1
0.098039 0.8 0.87451 1
0.098039 0.8 0.87451 1
0.098039 0.8 0.87451 1
0.098039 0.8 0.87451 1
0.098039 0.8 0.87451 1
0.098039 0.8 0.87451 1
0.098039 0.8 0.87451 1
0.098039 0.8 0.87451 1
0.098039 0.8 0.87451 1
0.098039 0.8 0.87451 1
0.098039 0.8 0.87451 1
0.098039 0.8 0.87451 1
0.098039 0.8 0.87451 1
0.098039 0.8 0.87451 1
0.098039 0.8 0.87451 1
0.098039 0.8 0.87451 1
0.098039 0.8 0.87451 1
0.098039 0.8 0.87451 1
0.098039 0.8 0.87451 1
0.098039 0.8 0.87451 1
0.098039 0.8 0.87451 1
0.098039 0.8 0.87451 1
0.098039 0.8 0.87451 1
0.098039 0.8 0.87451 1
0.098039 0.8 0.87451 1
0.098039 0.8 0.87451 1
0.098039 0.8 0.87451 1
0.098039 0.8 0.87451 1
0.098039 0.8 0.87451 1
0.098039 0.8 0.87451 1
0.098039 0.8 0.87451 1
0.098039 0.8 0.87451 1
0.098039 0.8 0.87451 1
0.098039 0.8 0.87451 1
0.098039 0.8 0.87451 1
0.098039 0.8 0.87451 1
0.098039 0.8 0.87451 1
0.098039 0.8 0.87451 1
0.098039 0.8 0.87451 1
0.098039 0.8 0.87451 1
0.098039 0.8 0.87451 1
0.098039 0.8 0.87451 1
0.098039 0.8 0.87451 1
0.098039 0.8 0.87451 1
0.098039 0.8 0.87451 1
0.098039 0.8 0.87451 1
0.098039 0.8 0.87451 1
0.098039 0.8 0.87451 1
0.098039 0.8 0.87451 1
0.098039 0.8 0.87451 1
0.098039 0.8 0.87451 1
0.098039 0.8 0.87451 1
0.098039 0.8 0.87451 1
0.098039 0.8 0.87451 1
0.098039 0.8 0.87451 1
0.098039 0.8 0.87451 1
0.098039 0.8 0.87451 1
0.098039 0.8 0.87451 1
0.098039 0.8 0.87451 1
0.098039 0.8 0.87451 1
0.098039 0.8 0.87451 1
0.098039 0.8 0.87451 1
0.098039 0.8 0.87451 1
0.098039 0.8 0.87451 1
0.098039 0.8 0.87451 1
0.098039 0.8 0.87451 1
0.098039 0.8 0.87451 1
0.098039 0.8 0.87451 1
0.098039 0.8 0.87451 1
0.098039 0.8 0.87451 1
0.098039 0.8 0.87451 1
0.098039 0.8 0.87451 1
0.098039 0.8 0.87451 1
0.098039 0.8 0.87451 1
0.098039 0.8 0.87451 1
0.098039 0.8 0.87451 1
0.098039 0.8 0.87451 1
0.098039 0.8 0.87451 1
0.098039 0.8 0.87451 1
0.098039 0.8 0.87451 1
0.098039 0.8 0.87451 1
0.098039 0.8 0.87451 1
0.098039 0.8 0.87451 1
0.098039 0.8 0.87451 1
0.098039 0.8 0.87451 1
0.098039 0.8 0.87451 1
0.098039 0.8 0.87451 1
0.098039 0.8 0.87451 1
0.098039 0.8 0.87451 1
0.098039 0.8 0.87451 1
0.098039 0.8 0.87451 1
0.098039 0.8 0.87451 1
0.098039 0.8 0.87451 1
0.098039 0.8 0.87451 1
0.098039 0.8 0.87451 1
0.098039 0.8 0.87451 1
0.098039 0.8 0.87451 1
0.098039 0.8 0.87451 1
0.098039 0.8 0.87451 1
0.098039 0.8 0.87451 1
0.098039 0.8 0.87451 1
0.098039 0.8 0.87451 1
0.098039 0.8 0.87451 1
0.098039 0.8 0.87451 1
0.098039 0.8 0.87451 1
0.098039 0.8 0.87451 1
0.098039 0.8 0.87451 1
0.098039 0.8 0.87451 1
0.098039 0.8 0.87451 1
0.098039 0.8 0.87451 1
0.098039 0.8 0.87451 1
0.098039 0.8 0.87451 1
0.098039 0.8 0.87451 1
0.098039 0.8 0.87451 1
0.098039 0.8 0.87451 1
0.098039 0.8 0.87451 1
0.098039 0.8 0.87451 1
0.098039 0.8 0.87451 1
0.098039 0.8 0.87451 1
0.098039 0.8 0.87451 1
0.098039 0.8 0.87451 1
0.098039 0.8 0.87451 1
0.098039 0.8 0.87451 1
0.098039 0.8 0.87451 1
0.098039 0.8 0.87451 1
0.098039 0.8 0.87451 1
0.098039 0.8 0.87451 1
0.098039 0.8 0.87451 1
0.098039 0.8 0.87451 1
0.098039 0.8 0.87451 1
0.098039 0.8 0.87451 1
0.098039 0.8 0.87451 1
0.098039 0.8 0.87451 1
0.098039 0.8 0.87451 1
0.098039 0.8 0.87451 1
0.098039 0.8 0.87451 1
0.098039 0.8 0.87451 1
0.098039 0.8 0.87451 1
0.098039 0.8 0.87451 1
0.098039 0.8 0.87451 1
0.098039 0.8 0.87451 1
0.098039 0.8 0.87451 1
0.098039 0.8 0.87451 1
0.098039 0.8 0.87451 1
0.098039 0.8 0.87451 1
0.098039 0.8 0.87451 1
0.098039 0.8 0.87451 1
0.098039 0.8 0.87451 1
0.098039 0.8 0.87451 1
0.098039 0.8 0.87451 1
0.098039 0.8 0.87451 1
0.098039 0.8 0.87451 1
0.098039 0.8 0.87451 1
0.098039 0.8 0.87451 1
0.098039 0.8 0.87451 1
0.098039 0.8 0.87451 1
0.098039 0.8 0.87451 1
0.098039 0.8 0.87451 1
0.098039 0.8 0.87451 1
0.098039 0.8 0.87451 1
0.098039 0.8 0.87451 1
0.098039 0.8 0.87451 1
0.098039 0.8 0.87451 1
0.098039 0.8 0.87451 1
0.098039 0.8 0.87451 1
0.098039 0.8 0.87451 1
0.098039 0.8 0.87451 1
0.098039 0.8 0.87451 1
0.098039 0.8 0.87451 1
0.098039 0.8 0.87451 1
0.098039 0.8 0.87451 1
0.098039 0.8 0.87451 1
0.098039 0.8 0.87451 1
0.098039 0.8 0.87451 1
0.098039 0.8 0.87451 1
0.098039 0.8 0.87451 1
0.098039 0.8 0.87451 1
0.098039 0.8 0.87451 1
0.098039 0.8 0.87451 1
0.098039 0.8 0.87451 1
0.098039 0.8 0.87451 1
0.098039 0.8 0.87451 1
0.098039 0.8 0.87451 1
0.098039 0.8 0.87451 1
0.098039 0.8 0.87451 1
0.098039 0.8 0.87451 1
0.098039 0.8 0.87451 1
0.098039 0.8 0.87451 1
0.098039 0.8 0.87451 1
0.098039 0.8 0.87451 1
0.098039 0.8 0.87451 1
0.098039 0.8 0.87451 1
0.098039 0.8 0.87451 1
0.098039 0.8 0.87451 1
0.098039 0.8 0.87451 1
0.098039 0.8 0.87451 1
0.098039 0.8 0.87451 1
0.098039 0.8 0.87451 1
0.098039 0.8 0.87451 1
0.098039 0.8 0.87451 1
0.098039 0.8 0.87451 1
0.098039 0.8 0.87451 1
0.098039 0.8 0.87451 1
0.098039 0.8 0.87451 1
0.098039 0.8 0.87451 1
0.098039 0.8 0.87451 1
0.098039 0.8 0.87451 1
0.098039 0.8 0.87451 1
0.098039 0.8 0.87451 1
0.098039 0.8 0.87451 1
0.098039 0.8 0.87451 1
0.098039 0.8 0.87451 1
0.098039 0.8 0.87451 1
0.098039 0.8 0.87451 1
0.098039 0.8 0.87451 1
0.098039 0.8 0.87451 1
0.098039 0.8 0.87451 1
0.098039 0.8 0.87451 1
0.098039 0.8 0.87451 1
0.098039 0.8 0.87451 1
0.098039 0.8 0.87451 1
0.098039 0.8 0.87451 1
0.098039 0.8 0.87451 1
0.098039 0.8 0.87451 1
0.098039 0.8 0.87451 1
0.098039 0.8 0.87451 1
0.098039 0.8 0.87451 1
0.098039 0.8 0.87451 1
0.098039 0.8 0.87451 1
0.098039 0.8 0.87451 1
0.098039 0.8 0.87451 1
0.098039 0.8 0.87451 1
0.098039 0.8 0.87451 1
0.098039 0.8 0.87451 1
0.098039 0.8 0.87451 1
0.098039 0.8 0.87451 1
0.098039 0.8 0.87451 1
0.098039 0.8 0.87451 1
0.098039 0.8 0.87451 1
0.098039 0.8 0.87451 1
0.098039 0.8 0.87451 1
0.098039 0.8 0.87451 1
0.098039 0.8 0.87451 1
0.098039 0.8 0.87451 1
0.098039 0.8 0.87451 1
0.098039 0.8 0.87451 1
0.098039 0.8 0.87451 1
0.098039 0.8 0.87451 1
0.098039 0.8 0.87451 1
0.098039 0.8 0.87451 1
0.098039 0.8 0.87451 1
0.098039 0.8 0.87451 1
0.098039 0.8 0.87451 1
0.098039 0.8 0.87451 1
0.098039 0.8 0.87451 1
0.098039 0.8 0.87451 1
0.098039 0.8 0.87451 1
0.098039 0.8 0.87451 1
0.098039 0.8 0.87451 1
0.098039 0.8 0.87451 1
0.098039 0.8 0.87451 1
0.098039 0.8 0.87451 1
0.098039 0.8 0.87451 1
0.098039 0.8 0.87451 1
0.098039 0.8 0.87451 1
0.098039 0.8 0.87451 1
0.098039 0.8 0.87451 1
0.098039 0.8 0.87451 1
0.098039 0.8 0.87451 1
0.098039 0.8 0.87451 1
0.098039 0.8 0.87451 1
0.098039 0.8 0.87451 1
0.098039 0.8 0.87451 1
0.098039 0.8 0.87451 1
0.098039 0.8 0.87451 1
0.098039 0.8 0.87451 1
0.098039 0.8 0.87451 1
0.098039 0.8 0.87451 1
0.098039 0.8 0.87451 1
0.098039 0.8 0.87451 1
0.098039 0.8 0.87451 1
0.098039 0.8 0.87451 1
0.098039 0.8 0.87451 1
0.098039 0.8 0.87451 1
0.098039 0.8 0.87451 1
0.098039 0.8 0.87451 1
0.098039 0.8 0.87451 1
0.098039 0.8 0.87451 1
0.098039 0.8 0.87451 1
0.098039 0.8 0.87451 1
0.098039 0.8 0.87451 1
0.098039 0.8 0.87451 1
0.098039 0.8 0.87451 1
0.098039 0.8 0.87451 1
0.098039 0.8 0.87451 1
0.098039 0.8 0.87451 1
0.098039 0.8 0.87451 1
0.098039 0.8 0.87451 1
0.098039 0.8 0.87451 1
0.098039 0.8 0.87451 1
0.098039 0.8 0.87451 1
0.098039 0.8 0.87451 1
0.098039 0.8 0.87451 1
0.098039 0.8 0.87451 1
0.098039 0.8 0.87451 1
0.098039 0.8 0.87451 1
0.098039 0.8 0.87451 1
0.098039 0.8 0.87451 1
0.098039 0.8 0.87451 1
0.098039 0.8 0.87451 1
0.098039 0.8 0.87451 1
0.098039 0.8 0.87451 1
0.098039 0.8 0.87451 1
0.098039 0.8 0.87451 1
0.098039 0.8 0.87451 1
0.098039 0.8 0.87451 1
0.098039 0.8 0.87451 1
0.098039 0.8 0.87451 1
0.098039 0.8 0.87451 1
0.098039 0.8 0.87451 1
0.098039 0.8 0.87451 1
0.098039 0.8 0.87451 1
0.098039 0.8 0.87451 1
0.098039 0.8 0.87451 1
0.098039 0.8 0.87451 1
0.098039 0.8 0.87451 1
0.098039 0.8 0.87451 1
0.098039 0.8 0.87451 1
0.098039 0.8 0.87451 1
0.098039 0.8 0.87451 1
0.098039 0.8 0.87451 1
0.098039 0.8 0.87451 1
0.098039 0.8 0.87451 1
0.098039 0.8 0.87451 1
0.098039 0.8 0.87451 1
0.098039 0.8 0.87451 1
0.098039 0.8 0.87451 1
0.098039 0.8 0.87451 1
0.098039 0.8 0.87451 1
0.098039 0.8 0.87451 1
0.098039 0.8 0.87451 1
0.098039 0.8 0.87451 1
0.098039 0.8 0.87451 1
0.098039 0.8 0.87451 1
0.098039 0.8 0.87451 1
0.098039 0.8 0.87451 1
0.098039 0.8 0.87451 1
0.098039 0.8 0.87451 1
0.098039 0.8 0.87451 1
0.098039 0.8 0.87451 1
0.098039 0.8 0.87451 1
0.098039 0.8 0.87451 1
0.098039 0.8 0.87451 1
0.098039 0.8 0.87451 1
0.098039 0.8 0.87451 1
0.098039 0.8 0.87451 1
0.098039 0.8 0.87451 1
0.098039 0.8 0.87451 1
0.098039 0.8 0.87451 1
0.098039 0.8 0.87451 1
0.098039 0.8 0.87451 1
0.098039 0.8 0.87451 1
0.098039 0.8 0.87451 1
0.098039 0.8 0.87451 1
0.098039 0.8 0.87451 1
0.098039 0.8 0.87451 1
0.098039 0.8 0.87451 1
0.098039 0.8 0.87451 1
0.098039 0.8 0.87451 1
0.098039 0.8 0.87451 1
0.098039 0.8 0.87451 1
0.098039 0.8 0.87451 1
0.098039 0.8 0.87451 1
0.098039 0.8 0.87451 1
0.098039 0.8 0.87451 1
0.098039 0.8 0.87451 1
0.098039 0.8 0.87451 1
0.098039 0.8 0.87451 1
0.098039 0.8 0.87451 1
0.098039 0.8 0.87451 1
0.098039 0.8 0.87451 1
0.098039 0.8 0.87451 1
0.098039 0.8 0.87451 1
0.098039 0.8 0.87451 1
0.098039 0.8 0.87451 1
0.098039 0.8 0.87451 1
0.098039 0.8 0.87451 1
0.098039 0.8 0.87451 1
0.098039 0.8 0.87451 1
0.098039 0.8 0.87451 1
0.098039 0.8 0.87451 1
0.098039 0.8 0.87451 1
0.098039 0.8 0.87451 1
0.098039 0.8 0.87451 1
0.098039 0.8 0.87451 1
0.098039 0.8 0.87451 1
0.098039 0.8 0.87451 1
0.098039 0.8 0.87451 1
0.098039 0.8 0.87451 1
0.098039 0.8 0.87451 1
0.098039 0.8 0.87451 1
0.098039 0.8 0.87451 1
0.098039 0.8 0.87451 1
0.098039 0.8 0.87451 1
0.098039 0.8 0.87451 1
0.098039 0.8 0.87451 1
0.098039 0.8 0.87451 1
0.098039 0.8 0.87451 1
0.098039 0.8 0.87451 1
0.098039 0.8 0.87451 1
0.098039 0.8 0.87451 1
0.098039 0.8 0.87451 1
0.098039 0.8 0.87451 1
0.098039 0.8 0.87451 1
0.098039 0.8 0.87451 1
0.098039 0.8 0.87451 1
0.098039 0.8 0.87451 1
0.098039 0.8 0.87451 1
0.098039 0.8 0.87451 1
0.098039 0.8 0.87451 1
0.098039 0.8 0.87451 1
0.098039 0.8 0.87451 1
0.098039 0.8 0.87451 1
0.098039 0.8 0.87451 1
0.098039 0.8 0.87451 1
0.098039 0.8 0.87451 1
0.098039 0.8 0.87451 1
0.098039 0.8 0.87451 1
0.098039 0.8 0.87451 1
0.098039 0.8 0.87451 1
0.098039 0.8 0.87451 1
0.098039 0.8 0.87451 1
0.098039 0.8 0.87451 1
0.098039 0.8 0.87451 1
0.098039 0.8 0.87451 1
0.098039 0.8 0.87451 1
0.098039 0.8 0.87451 1