# vtk DataFile Version 3.0
Gocad TSurf to VTK
ASCII
DATASET POLYDATA
POINTS 106 float
21623510.227 4542396.627 -2000.000
21623646.766 4542488.363 -1500.000
21623574.234 4542388.094 -1500.000
21623638.234 4542379.559 -1000.000
21623407.820 4542228.084 -1500.000
21623655.305 4542597.170 -2000.000
21623704.000 4542660.813 -1887.005
21623446.219 4542405.160 -2500.000
21623399.281 4542289.953 -2000.000
21623663.844 4542705.977 -2500.000
21623704.000 4542749.176 -2357.405
21623604.719 4542644.613 -2604.973
21623429.172 4542407.434 -2633.193
21623665.469 4542726.695 -2595.207
21623704.000 4542775.961 -2500.000
21623698.398 4542782.840 -2588.597
21623704.000 4542792.395 -2587.472
21623390.750 4542351.824 -2500.000
21623388.398 4542368.885 -2637.879
21623313.945 4542275.020 -2500.000
21623348.078 4542238.750 -2000.000
21623359.391 4542340.365 -2641.337
21623303.844 4542285.752 -2647.958
21623256.344 4542223.816 -2500.000
21623263.492 4542250.455 -2652.273
21623309.680 4542204.615 -2000.000
21623207.273 4542181.146 -2500.000
21623209.078 4542155.000 -2288.695
21623239.828 4542229.762 -2654.803
21623205.922 4542200.742 -2658.357
21623175.898 4542155.000 -2581.703
21623181.094 4542171.859 -2661.822
21623185.148 4542155.000 -2500.000
21623166.594 4542155.000 -2663.844
21623252.625 4542155.000 -2000.000
21623293.359 4542155.000 -1729.933
21623363.016 4542185.414 -1500.000
21623328.039 4542155.000 -1500.000
21623395.688 4542155.000 -1051.527
21623416.352 4542166.213 -1000.000
21623382.219 4542202.480 -1500.000
21623403.461 4542155.000 -1000.000
21623407.297 4542155.000 -977.014
21623408.313 4542155.000 -970.956
21623418.367 4542155.000 -910.738
21623421.625 4542155.000 -894.223
21623426.344 4542155.000 -870.218
21623433.844 4542155.000 -832.147
21623441.813 4542155.000 -799.769
21623453.547 4542155.000 -751.895
21623472.594 4542155.000 -674.261
21623478.641 4542155.000 -644.851
21623485.734 4542162.262 -644.305
21623504.594 4542155.000 -518.711
21623555.125 4542158.313 -288.609
21623652.148 4542322.271 -644.305
21623551.891 4542155.000 -288.858
21623560.320 4542155.000 -247.867
21623613.320 4542155.000 9.739
21623666.063 4542264.984 -288.609
21623624.750 4542155.000 65.039
21623625.172 4542155.000 67.086
21623679.977 4542207.699 67.086
21623704.000 4542232.291 68.937
21623692.773 4542155.000 394.296
21623704.000 4542195.127 253.200
21623704.000 4542160.762 423.560
21623698.375 4542155.000 423.127
21623704.000 4542232.701 66.903
21623682.219 4542281.531 -287.364
21623704.000 4542233.004 65.410
21623704.000 4542271.428 -78.205
21623692.391 4542302.689 -286.441
21623660.227 4542330.545 -643.682
21623704.000 4542286.211 -133.477
21623704.000 4542300.854 -188.207
21623702.563 4542323.850 -285.518
21623665.313 4542341.125 -643.221
21623704.000 4542322.604 -269.548
21623704.000 4542326.840 -285.388
21623675.484 4542362.283 -642.297
21623670.398 4542351.703 -642.759
21623704.000 4542349.059 -368.469
21623680.563 4542372.863 -641.836
21623704.000 4542352.570 -381.583
21623704.000 4542369.156 -443.554
21623685.648 4542383.443 -641.374
21623704.000 4542374.932 -465.149
21623704.000 4542384.947 -502.569
21623690.734 4542394.023 -640.913
21623704.000 4542391.926 -528.664
21623704.000 4542397.678 -550.179
21623695.820 4542404.604 -640.451
21623704.000 4542405.273 -578.583
21623704.000 4542408.160 -589.380
21623700.906 4542415.184 -639.990
21623704.000 4542416.035 -618.829
21623704.000 4542416.941 -622.218
21623704.000 4542421.629 -639.709
21623704.000 4542424.408 -650.086
21623704.000 4542430.832 -674.103
21623704.000 4542494.178 -1000.000
21623704.000 4542507.934 -1073.218
21623704.000 4542569.584 -1401.373
21623704.000 4542588.113 -1500.000
21623704.000 4542682.039 -2000.000

POLYGONS 139 556
3 59 58 54
3 63 62 59
3 101 100 3
3 3 95 92
3 7 8 17
3 0 1 2
3 80 76 81
3 23 28 24
3 3 77 73
3 105 6 5
3 91 90 89
3 19 20 25
3 70 68 69
3 6 1 5
3 90 88 89
3 102 3 1
3 38 37 36
3 53 52 54
3 68 59 69
3 76 72 77
3 52 51 39
3 63 65 62
3 40 39 36
3 62 61 59
3 94 92 95
3 26 29 28
3 42 41 39
3 7 5 0
3 85 83 86
3 41 38 39
3 27 26 25
3 3 92 89
3 15 14 13
3 74 71 72
3 71 69 72
3 11 7 12
3 88 87 86
3 93 91 92
3 29 30 31
3 14 9 13
3 20 4 40
3 0 5 1
3 3 39 4
3 78 75 76
3 104 103 1
3 103 102 1
3 69 59 55
3 7 9 5
3 23 24 22
3 19 8 20
3 79 78 76
3 82 79 80
3 65 64 62
3 77 72 73
3 30 33 31
3 102 101 3
3 23 19 25
3 96 94 95
3 51 50 39
3 43 42 39
3 2 4 0
3 27 32 26
3 19 17 8
3 39 38 36
3 17 19 21
3 82 80 83
3 0 4 8
3 71 70 69
3 12 17 18
3 34 27 25
3 52 55 54
3 60 58 59
3 98 95 3
3 72 69 73
3 3 83 80
3 49 48 39
3 4 39 40
3 10 105 5
3 85 84 83
3 46 45 39
3 1 3 2
3 91 89 92
3 94 93 92
3 100 99 3
3 79 76 80
3 75 72 76
3 20 40 36
3 98 97 95
3 37 35 36
3 81 76 77
3 53 51 52
3 64 65 66
3 45 44 39
3 64 61 62
3 18 17 21
3 75 74 72
3 25 20 36
3 48 47 39
3 99 98 3
3 88 86 89
3 97 96 95
3 3 89 86
3 23 26 28
3 3 55 52
3 21 19 22
3 47 46 39
3 87 85 86
3 36 35 25
3 3 80 81
3 2 3 4
3 61 60 59
3 16 14 15
3 20 8 4
3 13 9 11
3 3 73 55
3 7 17 12
3 14 10 9
3 6 104 1
3 73 69 55
3 44 43 39
3 58 57 54
3 68 63 59
3 57 56 54
3 0 8 7
3 10 5 9
3 32 30 26
3 64 66 67
3 23 25 26
3 50 49 39
3 55 59 54
3 19 23 22
3 3 81 77
3 3 86 83
3 39 3 52
3 56 53 54
3 35 34 25
3 84 82 83
3 9 7 11
3 26 30 29

POINT_DATA 106
COLOR_SCALARS GocadColor 4
1 0.270588 0 1
1 0.270588 0 1
1 0.270588 0 1
1 0.270588 0 1
1 0.270588 0 1
1 0.270588 0 1
1 0.270588 0 1
1 0.270588 0 1
1 0.270588 0 1
1 0.270588 0 1
1 0.270588 0 1
1 0.270588 0 1
1 0.270588 0 1
1 0.270588 0 1
1 0.270588 0 1
1 0.270588 0 1
1 0.270588 0 1
1 0.270588 0 1
1 0.270588 0 1
1 0.270588 0 1
1 0.270588 0 1
1 0.270588 0 1
1 0.270588 0 1
1 0.270588 0 1
1 0.270588 0 1
1 0.270588 0 1
1 0.270588 0 1
1 0.270588 0 1
1 0.270588 0 1
1 0.270588 0 1
1 0.270588 0 1
1 0.270588 0 1
1 0.270588 0 1
1 0.270588 0 1
1 0.270588 0 1
1 0.270588 0 1
1 0.270588 0 1
1 0.270588 0 1
1 0.270588 0 1
1 0.270588 0 1
1 0.270588 0 1
1 0.270588 0 1
1 0.270588 0 1
1 0.270588 0 1
1 0.270588 0 1
1 0.270588 0 1
1 0.270588 0 1
1 0.270588 0 1
1 0.270588 0 1
1 0.270588 0 1
1 0.270588 0 1
1 0.270588 0 1
1 0.270588 0 1
1 0.270588 0 1
1 0.270588 0 1
1 0.270588 0 1
1 0.270588 0 1
1 0.270588 0 1
1 0.270588 0 1
1 0.270588 0 1
1 0.270588 0 1
1 0.270588 0 1
1 0.270588 0 1
1 0.270588 0 1
1 0.270588 0 1
1 0.270588 0 1
1 0.270588 0 1
1 0.270588 0 1
1 0.270588 0 1
1 0.270588 0 1
1 0.270588 0 1
1 0.270588 0 1
1 0.270588 0 1
1 0.270588 0 1
1 0.270588 0 1
1 0.270588 0 1
1 0.270588 0 1
1 0.270588 0 1
1 0.270588 0 1
1 0.270588 0 1
1 0.270588 0 1
1 0.270588 0 1
1 0.270588 0 1
1 0.270588 0 1
1 0.270588 0 1
1 0.270588 0 1
1 0.270588 0 1
1 0.270588 0 1
1 0.270588 0 1
1 0.270588 0 1
1 0.270588 0 1
1 0.270588 0 1
1 0.270588 0 1
1 0.270588 0 1
1 0.270588 0 1
1 0.270588 0 1
1 0.270588 0 1
1 0.270588 0 1
1 0.270588 0 1
1 0.270588 0 1
1 0.270588 0 1
1 0.270588 0 1
1 0.270588 0 1
1 0.270588 0 1
1 0.270588 0 1
1 0.270588 0 1

