# vtk DataFile Version 3.0
Gocad TSurf to VTK
ASCII
DATASET POLYDATA
POINTS 212 float
21569205.609 4542537.297 -2850.000
21569203.609 4542526.961 -2799.681
21568519.250 4542556.906 -2850.000
21569201.203 4542514.492 -2738.981
21569197.625 4542549.121 -2880.679
21569166.563 4542595.109 -3000.000
21568988.984 4542645.848 -3120.811
21568697.141 4542656.055 -3134.131
21569143.375 4542638.840 -3113.944
21568580.250 4542642.619 -3141.431
21568473.359 4542630.334 -3148.106
21568359.531 4542590.713 -3158.190
21568204.734 4542537.039 -3172.587
21568171.750 4542525.607 -3175.653
21568088.188 4542395.260 -2850.000
21568020.750 4542464.732 -3190.618
21568573.141 4542470.695 -2500.000
21567998.391 4542255.166 -2500.000
21569181.594 4542413.051 -2245.120
21569181.641 4542412.658 -2243.539
21569188.859 4542450.705 -2428.435
21569191.703 4542465.404 -2500.000
21569181.703 4542412.203 -2241.700
21569182.547 4542405.289 -2213.756
21569183.250 4542399.615 -2190.820
21569176.563 4542378.748 -2082.261
21569171.484 4542362.936 -2000.000
21568889.250 4542319.824 -1750.000
21568328.875 4542183.322 -1750.000
21569171.453 4542362.873 -1999.667
21569156.063 4542314.885 -1750.000
21569171.672 4542362.904 -1999.854
21569146.875 4542286.260 -1601.078
21569142.500 4542272.650 -1530.277
21569047.313 4542244.389 -1375.000
21568537.469 4542155.000 -1375.000
21569143.359 4542270.664 -1523.856
21569146.547 4542263.285 -1500.000
21569151.766 4542251.172 -1460.839
21569158.406 4542235.785 -1411.099
21569155.563 4542225.926 -1375.000
21569144.609 4542211.279 -1304.460
21569132.141 4542212.447 -1276.506
21569118.656 4542213.711 -1246.302
21569112.297 4542214.307 -1232.070
21569109.859 4542214.535 -1226.597
21569104.156 4542199.771 -1168.912
21569072.813 4542155.000 -1000.000
21569087.438 4542156.539 -1000.000
21568786.391 4542155.000 -1122.794
21568616.906 4542155.000 -1294.524
21569085.266 4542155.311 -994.483
21569084.719 4542155.000 -993.094
21568511.547 4542155.000 -1391.528
21568459.172 4542155.000 -1454.335
21568313.250 4542155.000 -1699.022
21568282.844 4542155.000 -1750.000
21568075.438 4542155.000 -2097.819
21568070.234 4542161.770 -2125.000
21568068.234 4542155.000 -2116.969
21568065.219 4542155.000 -2125.000
21567957.141 4542155.000 -2412.128
21567924.078 4542155.000 -2500.000
21567808.578 4542155.000 -2811.485
21567825.969 4542197.691 -2850.000
21567794.297 4542155.000 -2850.000
21567697.891 4542155.000 -3109.976
21567861.891 4542398.852 -3200.000
21567665.453 4542155.000 -3200.000
21567679.828 4542190.385 -3239.229
21567669.969 4542178.943 -3241.015
21567860.625 4542400.184 -3206.487
21567895.266 4542414.146 -3203.054
21567926.078 4542426.572 -3200.000
21567659.813 4542155.000 -3215.656
21567649.719 4542155.000 -3244.729
21573330.766 4542164.248 -2891.741
21573357.203 4542155.000 -2965.444
21573336.141 4542155.000 -2879.061
21573324.516 4542174.979 -2906.454
21573313.250 4542194.318 -2932.971
21573329.141 4542247.980 -3200.000
21573303.969 4542210.230 -2954.788
21573414.375 4542155.000 -3200.000
21573319.859 4542331.584 -3501.697
21573165.500 4542403.514 -3439.001
21573330.016 4542321.947 -3507.583
21573437.406 4542155.000 -3303.205
21573336.906 4542315.398 -3511.583
21573414.563 4542260.094 -3550.000
21573533.672 4542155.000 -3550.000
21573546.547 4542155.000 -3619.281
21573179.250 4542377.195 -3367.868
21573213.156 4542305.971 -3200.000
21573264.734 4542251.598 -3060.738
21573288.766 4542226.264 -2995.850
21573159.563 4542155.000 -2414.261
21572951.484 4542155.000 -2125.000
21572829.844 4542204.875 -2125.000
21572818.203 4542155.000 -1951.445
21573293.219 4542194.100 -2850.000
21572926.828 4542449.141 -3200.000
21573267.156 4542155.000 -2596.025
21573329.063 4542155.000 -2850.000
21573330.766 4542164.248 -2891.741
21573324.516 4542174.979 -2906.454
21573336.141 4542155.000 -2879.061
21573313.250 4542194.318 -2932.971
21573303.969 4542210.230 -2954.788
21573288.766 4542226.264 -2995.850
21573264.734 4542251.598 -3060.738
21573213.156 4542305.971 -3200.000
21573179.250 4542377.195 -3367.868
21573037.500 4542455.188 -3389.880
21572969.625 4542481.666 -3366.793
21573128.984 4542420.531 -3424.168
21573165.500 4542403.514 -3439.001
21572759.797 4542447.662 -3344.018
21572122.188 4542226.430 -3200.000
21572255.547 4542299.717 -3317.062
21571930.906 4542155.000 -3082.039
21572495.766 4542155.000 -2314.930
21571915.828 4542155.000 -3200.000
21571864.484 4542165.705 -3304.242
21571834.234 4542155.000 -3303.392
21572068.016 4542237.715 -3309.964
21572712.672 4542155.000 -2089.338
21569738.953 4542155.000 -1750.000
21569542.688 4542155.000 -1399.037
21569701.078 4542176.137 -1750.000
21569510.688 4542165.361 -1375.000
21569846.688 4542155.000 -1995.182
21569277.203 4542312.641 -1750.000
21569880.922 4542155.000 -2100.142
21569895.391 4542155.000 -2125.000
21569313.125 4542384.482 -2125.000
21569156.063 4542314.885 -1750.000
21569765.734 4542402.443 -2850.000
21569399.344 4542531.762 -2850.000
21569916.938 4542155.000 -2156.372
21570232.906 4542155.000 -2657.123
21570472.844 4542155.000 -2956.753
21570397.953 4542262.350 -3200.000
21570282.891 4542311.355 -3200.000
21570569.344 4542155.000 -3016.498
21570828.953 4542155.000 -3177.256
21570836.188 4542161.770 -3200.000
21570428.797 4542262.551 -3219.639
21570849.875 4542155.000 -3185.966
21570883.578 4542155.000 -3200.000
21570854.656 4542179.053 -3258.071
21570894.672 4542174.244 -3260.709
21571054.734 4542155.000 -3271.263
21570392.906 4542269.588 -3216.400
21569978.906 4542424.387 -3155.446
21569862.484 4542455.158 -3142.394
21569707.531 4542498.480 -3133.554
21569633.719 4542523.186 -3128.491
21569437.422 4542588.883 -3115.029
21569431.109 4542590.084 -3114.786
21569286.422 4542617.666 -3109.229
21569195.266 4542636.486 -3111.636
21569166.563 4542595.109 -3000.000
21569143.375 4542638.840 -3113.944
21569197.625 4542549.121 -2880.679
21569205.609 4542537.297 -2850.000
21569203.609 4542526.961 -2799.681
21569201.203 4542514.492 -2738.981
21569191.703 4542465.404 -2500.000
21569188.859 4542450.705 -2428.435
21569181.594 4542413.051 -2245.120
21569181.641 4542412.658 -2243.539
21569181.703 4542412.203 -2241.700
21569182.547 4542405.289 -2213.756
21569183.250 4542399.615 -2190.820
21569176.563 4542378.748 -2082.261
21569171.672 4542362.904 -1999.854
21569171.484 4542362.936 -2000.000
21569171.453 4542362.873 -1999.667
21569146.875 4542286.260 -1601.078
21569142.500 4542272.650 -1530.277
21569143.359 4542270.664 -1523.856
21569146.547 4542263.285 -1500.000
21569151.766 4542251.172 -1460.839
21569158.406 4542235.785 -1411.099
21569155.563 4542225.926 -1375.000
21569310.000 4542155.000 -1184.558
21569144.609 4542211.279 -1304.460
21569516.438 4542155.000 -1334.938
21569517.672 4542155.000 -1338.763
21569526.438 4542155.000 -1366.206
21569530.797 4542155.000 -1375.000
21569132.141 4542212.447 -1276.506
21569118.656 4542213.711 -1246.302
21569255.188 4542155.000 -1000.000
21569112.297 4542214.307 -1232.070
21569109.859 4542214.535 -1226.597
21569205.359 4542168.953 -1000.000
21569104.156 4542199.771 -1168.912
21569237.156 4542155.000 -964.732
21569198.172 4542155.000 -913.402
21569143.391 4542155.000 -959.064
21569087.438 4542156.539 -1000.000
21569085.266 4542155.311 -994.483
21569084.719 4542155.000 -993.094
21571316.344 4542155.000 -3257.852
21571182.563 4542155.000 -3274.768
21571293.875 4542161.760 -3275.653
21571358.516 4542162.146 -3277.301
21571484.578 4542155.000 -3259.458
21571519.734 4542163.111 -3281.412
21571630.719 4542155.000 -3287.054

POLYGONS 226 904
3 55 56 28
3 18 19 16
3 2 16 14
3 40 41 34
3 26 27 16
3 35 53 27
3 46 48 47
3 14 15 13
3 44 45 34
3 41 42 34
3 23 24 16
3 32 33 27
3 58 60 17
3 16 27 28
3 33 34 27
3 33 36 34
3 49 50 34
3 62 63 17
3 63 64 17
3 67 72 73
3 60 61 17
3 24 25 16
3 30 32 27
3 17 64 14
3 56 57 28
3 42 43 34
3 71 67 69
3 36 37 34
3 0 1 2
3 67 71 72
3 37 38 34
3 66 67 64
3 39 40 34
3 2 14 13
3 68 74 70
3 34 35 27
3 61 62 17
3 3 21 2
3 26 31 29
3 5 2 6
3 57 59 58
3 22 23 16
3 53 54 27
3 16 17 14
3 6 2 7
3 2 18 16
3 4 0 2
3 2 10 9
3 15 14 73
3 50 35 34
3 19 22 16
3 51 52 47
3 38 39 34
3 59 60 58
3 26 29 27
3 29 30 27
3 54 28 27
3 65 66 64
3 34 46 47
3 48 51 47
3 7 2 9
3 5 6 8
3 74 75 70
3 67 68 69
3 25 26 16
3 21 20 2
3 54 55 28
3 17 16 58
3 43 44 34
3 64 67 14
3 14 67 73
3 66 68 67
3 1 3 2
3 2 11 10
3 2 13 12
3 28 58 16
3 57 58 28
3 47 49 34
3 68 70 69
3 20 18 2
3 63 65 64
3 5 4 2
3 45 46 34
3 11 2 12
3 77 79 80
3 90 87 89
3 81 82 95
3 83 81 84
3 88 87 86
3 92 81 93
3 87 83 86
3 81 95 94
3 83 77 81
3 81 80 82
3 76 77 78
3 81 77 80
3 87 88 89
3 84 81 85
3 77 76 79
3 93 81 94
3 85 81 92
3 83 84 86
3 91 90 89
3 120 122 118
3 116 112 115
3 115 112 113
3 99 126 98
3 125 118 123
3 105 104 100
3 109 108 100
3 118 101 98
3 96 97 98
3 120 118 98
3 101 114 113
3 118 122 123
3 107 105 100
3 101 109 100
3 102 96 100
3 121 120 98
3 108 107 100
3 118 125 119
3 101 118 117
3 103 102 100
3 112 111 101
3 117 118 119
3 96 98 100
3 101 100 98
3 126 121 98
3 104 106 103
3 111 110 101
3 97 99 98
3 112 101 113
3 123 122 124
3 104 103 100
3 114 101 117
3 110 109 101
3 130 184 183
3 134 135 137
3 142 141 137
3 186 192 187
3 138 162 161
3 130 186 185
3 136 178 176
3 194 199 197
3 152 149 151
3 193 194 195
3 138 158 157
3 140 139 137
3 149 148 146
3 186 193 192
3 144 141 142
3 199 200 197
3 145 142 146
3 135 170 169
3 134 133 132
3 194 197 196
3 138 137 135
3 142 153 147
3 198 197 202
3 128 130 129
3 149 150 151
3 158 138 159
3 142 137 143
3 176 177 175
3 148 145 146
3 135 174 173
3 156 137 157
3 128 191 130
3 170 135 171
3 203 201 204
3 130 185 184
3 135 175 174
3 131 127 129
3 190 189 130
3 182 130 183
3 146 142 147
3 130 182 181
3 186 187 185
3 135 132 136
3 132 180 179
3 191 190 130
3 162 163 161
3 127 128 129
3 197 201 202
3 138 166 165
3 141 140 137
3 149 146 150
3 137 154 143
3 132 130 180
3 132 131 129
3 135 134 132
3 167 138 168
3 194 196 195
3 135 173 172
3 154 137 155
3 138 164 162
3 188 186 130
3 200 201 197
3 136 132 179
3 189 188 130
3 135 136 176
3 171 135 172
3 129 130 132
3 145 144 142
3 138 167 166
3 138 135 168
3 196 197 198
3 159 138 160
3 133 131 132
3 130 181 180
3 186 194 193
3 155 137 156
3 201 203 202
3 175 135 176
3 135 169 168
3 164 138 165
3 137 138 157
3 150 146 147
3 139 134 137
3 160 138 161
3 153 142 143
3 209 205 208
3 211 209 210
3 205 206 207
3 208 205 207
3 210 209 208

POINT_DATA 212
COLOR_SCALARS GocadColor 4
0 0 0.247058 1
0 0 0.247058 1
0 0 0.247058 1
0 0 0.247058 1
0 0 0.247058 1
0 0 0.247058 1
0 0 0.247058 1
0 0 0.247058 1
0 0 0.247058 1
0 0 0.247058 1
0 0 0.247058 1
0 0 0.247058 1
0 0 0.247058 1
0 0 0.247058 1
0 0 0.247058 1
0 0 0.247058 1
0 0 0.247058 1
0 0 0.247058 1
0 0 0.247058 1
0 0 0.247058 1
0 0 0.247058 1
0 0 0.247058 1
0 0 0.247058 1
0 0 0.247058 1
0 0 0.247058 1
0 0 0.247058 1
0 0 0.247058 1
0 0 0.247058 1
0 0 0.247058 1
0 0 0.247058 1
0 0 0.247058 1
0 0 0.247058 1
0 0 0.247058 1
0 0 0.247058 1
0 0 0.247058 1
0 0 0.247058 1
0 0 0.247058 1
0 0 0.247058 1
0 0 0.247058 1
0 0 0.247058 1
0 0 0.247058 1
0 0 0.247058 1
0 0 0.247058 1
0 0 0.247058 1
0 0 0.247058 1
0 0 0.247058 1
0 0 0.247058 1
0 0 0.247058 1
0 0 0.247058 1
0 0 0.247058 1
0 0 0.247058 1
0 0 0.247058 1
0 0 0.247058 1
0 0 0.247058 1
0 0 0.247058 1
0 0 0.247058 1
0 0 0.247058 1
0 0 0.247058 1
0 0 0.247058 1
0 0 0.247058 1
0 0 0.247058 1
0 0 0.247058 1
0 0 0.247058 1
0 0 0.247058 1
0 0 0.247058 1
0 0 0.247058 1
0 0 0.247058 1
0 0 0.247058 1
0 0 0.247058 1
0 0 0.247058 1
0 0 0.247058 1
0 0 0.247058 1
0 0 0.247058 1
0 0 0.247058 1
0 0 0.247058 1
0 0 0.247058 1
0 0 0.247058 1
0 0 0.247058 1
0 0 0.247058 1
0 0 0.247058 1
0 0 0.247058 1
0 0 0.247058 1
0 0 0.247058 1
0 0 0.247058 1
0 0 0.247058 1
0 0 0.247058 1
0 0 0.247058 1
0 0 0.247058 1
0 0 0.247058 1
0 0 0.247058 1
0 0 0.247058 1
0 0 0.247058 1
0 0 0.247058 1
0 0 0.247058 1
0 0 0.247058 1
0 0 0.247058 1
0 0 0.247058 1
0 0 0.247058 1
0 0 0.247058 1
0 0 0.247058 1
0 0 0.247058 1
0 0 0.247058 1
0 0 0.247058 1
0 0 0.247058 1
0 0 0.247058 1
0 0 0.247058 1
0 0 0.247058 1
0 0 0.247058 1
0 0 0.247058 1
0 0 0.247058 1
0 0 0.247058 1
0 0 0.247058 1
0 0 0.247058 1
0 0 0.247058 1
0 0 0.247058 1
0 0 0.247058 1
0 0 0.247058 1
0 0 0.247058 1
0 0 0.247058 1
0 0 0.247058 1
0 0 0.247058 1
0 0 0.247058 1
0 0 0.247058 1
0 0 0.247058 1
0 0 0.247058 1
0 0 0.247058 1
0 0 0.247058 1
0 0 0.247058 1
0 0 0.247058 1
0 0 0.247058 1
0 0 0.247058 1
0 0 0.247058 1
0 0 0.247058 1
0 0 0.247058 1
0 0 0.247058 1
0 0 0.247058 1
0 0 0.247058 1
0 0 0.247058 1
0 0 0.247058 1
0 0 0.247058 1
0 0 0.247058 1
0 0 0.247058 1
0 0 0.247058 1
0 0 0.247058 1
0 0 0.247058 1
0 0 0.247058 1
0 0 0.247058 1
0 0 0.247058 1
0 0 0.247058 1
0 0 0.247058 1
0 0 0.247058 1
0 0 0.247058 1
0 0 0.247058 1
0 0 0.247058 1
0 0 0.247058 1
0 0 0.247058 1
0 0 0.247058 1
0 0 0.247058 1
0 0 0.247058 1
0 0 0.247058 1
0 0 0.247058 1
0 0 0.247058 1
0 0 0.247058 1
0 0 0.247058 1
0 0 0.247058 1
0 0 0.247058 1
0 0 0.247058 1
0 0 0.247058 1
0 0 0.247058 1
0 0 0.247058 1
0 0 0.247058 1
0 0 0.247058 1
0 0 0.247058 1
0 0 0.247058 1
0 0 0.247058 1
0 0 0.247058 1
0 0 0.247058 1
0 0 0.247058 1
0 0 0.247058 1
0 0 0.247058 1
0 0 0.247058 1
0 0 0.247058 1
0 0 0.247058 1
0 0 0.247058 1
0 0 0.247058 1
0 0 0.247058 1
0 0 0.247058 1
0 0 0.247058 1
0 0 0.247058 1
0 0 0.247058 1
0 0 0.247058 1
0 0 0.247058 1
0 0 0.247058 1
0 0 0.247058 1
0 0 0.247058 1
0 0 0.247058 1
0 0 0.247058 1
0 0 0.247058 1
0 0 0.247058 1
0 0 0.247058 1
0 0 0.247058 1
0 0 0.247058 1
0 0 0.247058 1
0 0 0.247058 1
0 0 0.247058 1
0 0 0.247058 1
0 0 0.247058 1
0 0 0.247058 1
0 0 0.247058 1
0 0 0.247058 1
0 0 0.247058 1
0 0 0.247058 1

