# vtk DataFile Version 3.0
Gocad TSurf to VTK
ASCII
DATASET POLYDATA
POINTS 1763 float
21509347.094 4565677.750 -974.949
21509426.500 4565666.227 -462.424
21509347.094 4565675.266 -974.934
21509426.500 4565662.504 -462.401
21509267.688 4565688.031 -1487.467
21509426.500 4565669.945 -462.447
21509347.094 4565680.227 -974.965
21509505.906 4565654.703 50.101
21509505.891 4565649.742 50.132
21509505.906 4565659.664 50.070
21509426.516 4565673.664 -462.470
21509505.922 4565664.621 50.040
21509426.531 4565677.383 -462.493
21509347.109 4565682.707 -974.980
21509505.938 4565669.582 50.009
21509426.531 4565681.105 -462.516
21509347.125 4565685.188 -974.995
21509505.938 4565674.543 49.979
21509426.531 4565684.824 -462.539
21509347.125 4565687.668 -975.010
21509505.953 4565679.500 49.948
21509426.547 4565688.543 -462.562
21509347.125 4565690.148 -975.026
21509505.969 4565684.461 49.918
21509426.547 4565692.266 -462.585
21509347.125 4565692.625 -975.041
21509505.969 4565689.422 49.887
21509426.563 4565695.984 -462.608
21509347.125 4565695.109 -975.056
21509505.984 4565694.379 49.857
21509426.578 4565699.703 -462.630
21509347.141 4565697.586 -975.072
21509506.000 4565699.340 49.826
21509426.578 4565703.422 -462.653
21509347.156 4565700.066 -975.087
21509506.000 4565704.301 49.795
21509426.594 4565707.141 -462.677
21509347.156 4565702.547 -975.102
21509506.016 4565709.258 49.765
21509426.594 4565710.863 -462.699
21509347.156 4565705.023 -975.118
21509506.031 4565714.219 49.734
21509426.594 4565714.582 -462.722
21509347.156 4565709.984 -975.148
21509506.031 4565719.180 49.704
21509426.609 4565718.301 -462.745
21509347.172 4565712.465 -975.163
21509506.047 4565724.137 49.673
21509426.625 4565722.023 -462.768
21509347.188 4565714.945 -975.179
21509506.063 4565729.098 49.643
21509426.625 4565725.738 -462.791
21509347.188 4565717.422 -975.194
21509506.078 4565734.055 49.612
21509426.625 4565729.461 -462.814
21509347.188 4565719.906 -975.209
21509506.078 4565739.016 49.581
21509426.641 4565733.180 -462.837
21509347.188 4565722.383 -975.225
21509506.094 4565743.977 49.551
21509426.656 4565736.898 -462.860
21509347.203 4565724.863 -975.240
21509506.109 4565748.934 49.520
21509435.391 4565792.195 -462.860
21509506.109 4565753.895 49.490
21509435.391 4565795.914 -462.883
21509364.656 4565835.453 -975.240
21509506.125 4565758.855 49.459
21509435.406 4565799.633 -462.906
21509364.656 4565837.934 -975.255
21509506.141 4565763.813 49.429
21509435.406 4565803.352 -462.928
21509364.672 4565840.414 -975.271
21509506.141 4565768.773 49.398
21509435.406 4565807.074 -462.952
21509364.688 4565842.891 -975.286
21509506.156 4565773.734 49.385
21509435.422 4565810.793 -462.961
21509364.688 4565845.375 -975.301
21509506.172 4565778.691 49.382
21509435.438 4565814.512 -462.963
21509364.688 4565847.852 -975.307
21509506.172 4565783.652 49.379
21509435.438 4565818.234 -462.965
21509364.688 4565850.332 -975.309
21509506.188 4565788.613 49.377
21509435.438 4565821.953 -462.967
21509364.688 4565852.813 -975.310
21509506.203 4565793.570 49.374
21509435.453 4565825.672 -462.969
21509364.703 4565855.293 -975.312
21509506.219 4565798.531 49.371
21509435.469 4565829.391 -462.972
21509364.719 4565857.773 -975.313
21509506.219 4565803.488 49.368
21509435.469 4565833.109 -462.974
21509364.719 4565860.250 -975.314
21509506.234 4565808.449 49.366
21509435.484 4565836.828 -462.976
21509364.719 4565862.730 -975.316
21509506.250 4565813.410 49.363
21509435.500 4565840.551 -462.978
21509364.719 4565865.211 -975.317
21509506.250 4565818.367 49.360
21509435.500 4565844.270 -462.980
21509364.734 4565867.691 -975.319
21509506.266 4565823.328 49.357
21509435.500 4565847.988 -462.982
21509364.734 4565870.172 -975.320
21509506.281 4565828.289 49.355
21509435.516 4565851.711 -462.984
21509364.750 4565872.648 -975.321
21509506.281 4565833.246 49.352
21509435.516 4565855.430 -462.986
21509364.750 4565875.133 -975.323
21509506.297 4565838.207 49.349
21509435.531 4565859.148 -462.988
21509364.750 4565877.609 -975.324
21509437.188 4565862.449 -462.992
21509365.859 4565882.289 -975.328
21509508.500 4565842.609 49.344
21509438.844 4565865.750 -462.997
21509366.969 4565884.492 -975.331
21509510.719 4565847.012 49.338
21509440.500 4565869.051 -463.001
21509368.063 4565886.691 -975.334
21509512.922 4565851.410 49.333
21509442.156 4565872.352 -463.005
21509369.172 4565888.891 -975.336
21509515.125 4565855.813 49.327
21509443.797 4565875.656 -463.009
21509370.281 4565891.094 -975.339
21509517.328 4565860.215 49.322
21509445.469 4565878.957 -463.013
21509371.375 4565893.297 -975.342
21509519.547 4565864.617 49.316
21509447.125 4565882.254 -463.017
21509372.484 4565895.492 -975.345
21509521.750 4565869.016 49.311
21509448.766 4565885.555 -463.021
21509373.594 4565897.695 -975.347
21509523.953 4565873.418 49.305
21509450.438 4565888.859 -463.025
21509374.688 4565899.898 -975.350
21509526.172 4565877.820 49.300
21509452.094 4565892.160 -463.030
21509375.797 4565902.098 -975.353
21509528.375 4565882.223 49.294
21509453.734 4565895.461 -463.034
21509376.906 4565904.297 -975.356
21509530.578 4565886.625 49.289
21509455.406 4565898.762 -463.038
21509378.000 4565906.500 -975.358
21509532.797 4565891.023 49.283
21509457.063 4565902.063 -463.042
21509379.109 4565908.699 -975.361
21509535.000 4565895.426 49.278
21509458.703 4565905.363 -463.046
21509380.219 4565910.898 -975.364
21509537.203 4565899.828 49.272
21509460.359 4565908.664 -463.050
21509381.313 4565913.102 -975.367
21509539.406 4565904.230 49.267
21509462.031 4565911.965 -463.054
21509382.422 4565915.301 -975.369
21509541.625 4565908.629 49.261
21509463.672 4565915.266 -463.058
21509383.531 4565917.500 -975.372
21509543.828 4565913.031 49.256
21509465.328 4565918.570 -463.062
21509384.625 4565919.703 -975.375
21509546.031 4565917.434 49.250
21509467.000 4565921.871 -463.067
21509385.734 4565921.906 -975.378
21509548.250 4565921.836 49.245
21509468.641 4565925.172 -463.071
21509386.844 4565924.105 -975.380
21509550.453 4565926.238 49.239
21509470.297 4565928.469 -463.075
21509387.938 4565926.305 -975.383
21509552.656 4565930.637 49.234
21509471.969 4565931.773 -463.079
21509389.047 4565928.508 -975.386
21509554.875 4565935.039 49.228
21509473.609 4565935.074 -463.083
21509390.156 4565930.707 -975.388
21509557.078 4565939.441 49.223
21509475.266 4565938.375 -463.087
21509391.250 4565932.906 -975.391
21509559.281 4565943.844 49.217
21509476.922 4565941.676 -463.091
21509392.344 4565935.109 -975.394
21509561.484 4565948.242 49.212
21509524.453 4566027.043 -463.091
21509563.703 4565952.645 49.206
21509526.125 4566030.344 -463.095
21509487.422 4566105.844 -975.394
21509565.906 4565957.047 49.201
21509527.766 4566033.645 -463.099
21509488.531 4566108.043 -975.397
21509569.281 4565960.715 49.194
21509530.297 4566036.398 -463.104
21509489.625 4566110.242 -975.399
21509572.641 4565964.383 49.188
21509532.813 4566039.148 -463.109
21509491.313 4566112.078 -975.403
21509576.016 4565968.055 49.181
21509535.344 4566041.902 -463.114
21509493.000 4566113.914 -975.406
21509579.391 4565971.723 49.174
21509537.875 4566044.652 -463.119
21509494.688 4566115.750 -975.409
21509582.750 4565975.391 49.168
21509540.406 4566047.402 -463.124
21509496.375 4566117.582 -975.413
21509586.125 4565979.059 49.161
21509542.938 4566050.156 -463.129
21509498.063 4566119.414 -975.416
21509589.500 4565982.730 49.154
21509545.469 4566052.906 -463.134
21509499.750 4566121.250 -975.419
21509592.859 4565986.398 49.148
21509547.984 4566055.660 -463.139
21509501.438 4566123.086 -975.423
21509596.234 4565990.066 49.141
21509550.516 4566058.410 -463.144
21509503.109 4566124.922 -975.426
21509599.609 4565993.734 49.134
21509553.047 4566061.160 -463.149
21509504.797 4566126.754 -975.429
21509602.969 4565997.406 49.128
21509555.563 4566063.914 -463.154
21509506.484 4566128.586 -975.433
21509606.344 4566001.074 49.121
21509558.094 4566066.664 -463.159
21509508.156 4566130.422 -975.436
21509609.719 4566004.742 49.114
21509560.625 4566069.418 -463.164
21509509.844 4566132.258 -975.439
21509613.078 4566008.410 49.108
21509563.156 4566072.168 -463.169
21509511.531 4566134.094 -975.443
21509616.453 4566012.082 49.101
21509565.688 4566074.922 -463.174
21509513.219 4566135.926 -975.446
21509619.828 4566015.750 49.094
21509568.219 4566077.672 -463.179
21509514.906 4566137.762 -975.449
21509623.188 4566019.418 49.088
21509570.734 4566080.422 -463.184
21509516.594 4566139.594 -975.453
21509626.563 4566023.086 49.081
21509573.266 4566083.176 -463.189
21509518.281 4566141.430 -975.456
21509629.938 4566026.758 49.074
21509575.797 4566085.930 -463.194
21509519.969 4566143.266 -975.459
21509633.297 4566030.426 49.068
21509578.313 4566088.680 -463.199
21509521.656 4566145.102 -975.463
21509598.688 4566102.262 -463.199
21509564.063 4566174.098 -975.466
21509636.672 4566034.094 49.061
21509601.219 4566105.012 -463.204
21509640.047 4566037.762 49.054
21509603.750 4566107.766 -463.209
21509565.750 4566175.930 -975.469
21509643.406 4566041.434 49.047
21509606.266 4566110.516 -463.214
21509567.438 4566177.766 -975.473
21509646.781 4566045.102 49.041
21509608.797 4566113.270 -463.219
21509569.125 4566179.602 -975.476
21509650.156 4566048.770 49.034
21509611.328 4566116.020 -463.224
21509570.813 4566181.438 -975.479
21509653.516 4566052.438 49.027
21509613.844 4566118.770 -463.229
21509572.500 4566183.270 -975.483
21509656.891 4566056.109 49.021
21509616.375 4566121.523 -463.234
21509574.188 4566185.102 -975.486
21509660.266 4566059.777 49.014
21509618.906 4566124.273 -463.239
21509575.875 4566186.938 -975.490
21509663.625 4566063.445 49.007
21509621.438 4566127.027 -463.245
21509577.563 4566188.773 -975.493
21509667.000 4566067.113 49.001
21509623.969 4566129.777 -463.249
21509579.234 4566190.609 -975.496
21509670.375 4566070.785 48.994
21509626.500 4566132.531 -463.254
21509580.922 4566192.441 -975.500
21509673.734 4566074.453 48.987
21509629.016 4566135.281 -463.260
21509582.609 4566194.277 -975.503
[...]
POINT_DATA 1763
COLOR_SCALARS GocadColor 4
0.486275 0.596078 0.827451 1
0.486275 0.596078 0.827451 1
0.486275 0.596078 0.827451 1
0.486275 0.596078 0.827451 1
0.486275 0.596078 0.827451 1
0.486275 0.596078 0.827451 1
0.486275 0.596078 0.827451 1
0.486275 0.596078 0.827451 1
0.486275 0.596078 0.827451 1
0.486275 0.596078 0.827451 1
0.486275 0.596078 0.827451 1
0.486275 0.596078 0.827451 1
0.486275 0.596078 0.827451 1
0.486275 0.596078 0.827451 1
0.486275 0.596078 0.827451 1
0.486275 0.596078 0.827451 1
0.486275 0.596078 0.827451 1
0.486275 0.596078 0.827451 1
0.486275 0.596078 0.827451 1
0.486275 0.596078 0.827451 1
0.486275 0.596078 0.827451 1
0.486275 0.596078 0.827451 1
0.486275 0.596078 0.827451 1
0.486275 0.596078 0.827451 1
0.486275 0.596078 0.827451 1
0.486275 0.596078 0.827451 1
0.486275 0.596078 0.827451 1
0.486275 0.596078 0.827451 1
0.486275 0.596078 0.827451 1
0.486275 0.596078 0.827451 1
0.486275 0.596078 0.827451 1
0.486275 0.596078 0.827451 1
0.486275 0.596078 0.827451 1
0.486275 0.596078 0.827451 1
0.486275 0.596078 0.827451 1
0.486275 0.596078 0.827451 1
0.486275 0.596078 0.827451 1
0.486275 0.596078 0.827451 1
0.486275 0.596078 0.827451 1
0.486275 0.596078 0.827451 1
0.486275 0.596078 0.827451 1
0.486275 0.596078 0.827451 1
0.486275 0.596078 0.827451 1
0.486275 0.596078 0.827451 1
0.486275 0.596078 0.827451 1
0.486275 0.596078 0.827451 1
0.486275 0.596078 0.827451 1
0.486275 0.596078 0.827451 1
0.486275 0.596078 0.827451 1
0.486275 0.596078 0.827451 1
0.486275 0.596078 0.827451 1
0.486275 0.596078 0.827451 1
0.486275 0.596078 0.827451 1
0.486275 0.596078 0.827451 1
0.486275 0.596078 0.827451 1
0.486275 0.596078 0.827451 1
0.486275 0.596078 0.827451 1
0.486275 0.596078 0.827451 1
0.486275 0.596078 0.827451 1
0.486275 0.596078 0.827451 1
0.486275 0.596078 0.827451 1
0.486275 0.596078 0.827451 1
0.486275 0.596078 0.827451 1
0.486275 0.596078 0.827451 1
0.486275 0.596078 0.827451 1
0.486275 0.596078 0.827451 1
0.486275 0.596078 0.827451 1
0.486275 0.596078 0.827451 1
0.486275 0.596078 0.827451 1
0.486275 0.596078 0.827451 1
0.486275 0.596078 0.827451 1
0.486275 0.596078 0.827451 1
0.486275 0.596078 0.827451 1
0.486275 0.596078 0.827451 1
0.486275 0.596078 0.827451 1
0.486275 0.596078 0.827451 1
0.486275 0.596078 0.827451 1
0.486275 0.596078 0.827451 1
0.486275 0.596078 0.827451 1
0.486275 0.596078 0.827451 1
0.486275 0.596078 0.827451 1
0.486275 0.596078 0.827451 1
0.486275 0.596078 0.827451 1
0.486275 0.596078 0.827451 1
0.486275 0.596078 0.827451 1
0.486275 0.596078 0.827451 1
0.486275 0.596078 0.827451 1
0.486275 0.596078 0.827451 1
0.486275 0.596078 0.827451 1
0.486275 0.596078 0.827451 1
0.486275 0.596078 0.827451 1
0.486275 0.596078 0.827451 1
0.486275 0.596078 0.827451 1
0.486275 0.596078 0.827451 1
0.486275 0.596078 0.827451 1
0.486275 0.596078 0.827451 1
0.486275 0.596078 0.827451 1
0.486275 0.596078 0.827451 1
0.486275 0.596078 0.827451 1
0.486275 0.596078 0.827451 1
0.486275 0.596078 0.827451 1
0.486275 0.596078 0.827451 1
0.486275 0.596078 0.827451 1
0.486275 0.596078 0.827451 1
0.486275 0.596078 0.827451 1
0.486275 0.596078 0.827451 1
0.486275 0.596078 0.827451 1
0.486275 0.596078 0.827451 1
0.486275 0.596078 0.827451 1
0.486275 0.596078 0.827451 1
0.486275 0.596078 0.827451 1
0.486275 0.596078 0.827451 1
0.486275 0.596078 0.827451 1
0.486275 0.596078 0.827451 1
0.486275 0.596078 0.827451 1
0.486275 0.596078 0.827451 1
0.486275 0.596078 0.827451 1
0.486275 0.596078 0.827451 1
0.486275 0.596078 0.827451 1
0.486275 0.596078 0.827451 1
0.486275 0.596078 0.827451 1
0.486275 0.596078 0.827451 1
0.486275 0.596078 0.827451 1
0.486275 0.596078 0.827451 1
0.486275 0.596078 0.827451 1
0.486275 0.596078 0.827451 1
0.486275 0.596078 0.827451 1
0.486275 0.596078 0.827451 1
0.486275 0.596078 0.827451 1
0.486275 0.596078 0.827451 1
0.486275 0.596078 0.827451 1
0.486275 0.596078 0.827451 1
0.486275 0.596078 0.827451 1
0.486275 0.596078 0.827451 1
0.486275 0.596078 0.827451 1
0.486275 0.596078 0.827451 1
0.486275 0.596078 0.827451 1
0.486275 0.596078 0.827451 1
0.486275 0.596078 0.827451 1
0.486275 0.596078 0.827451 1
0.486275 0.596078 0.827451 1
0.486275 0.596078 0.827451 1
0.486275 0.596078 0.827451 1
0.486275 0.596078 0.827451 1
0.486275 0.596078 0.827451 1
0.486275 0.596078 0.827451 1
0.486275 0.596078 0.827451 1
0.486275 0.596078 0.827451 1
0.486275 0.596078 0.827451 1
0.486275 0.596078 0.827451 1
0.486275 0.596078 0.827451 1
0.486275 0.596078 0.827451 1
0.486275 0.596078 0.827451 1
0.486275 0.596078 0.827451 1
0.486275 0.596078 0.827451 1
0.486275 0.596078 0.827451 1
0.486275 0.596078 0.827451 1
0.486275 0.596078 0.827451 1
0.486275 0.596078 0.827451 1
0.486275 0.596078 0.827451 1
0.486275 0.596078 0.827451 1
0.486275 0.596078 0.827451 1
0.486275 0.596078 0.827451 1
0.486275 0.596078 0.827451 1
0.486275 0.596078 0.827451 1
0.486275 0.596078 0.827451 1
0.486275 0.596078 0.827451 1
0.486275 0.596078 0.827451 1
0.486275 0.596078 0.827451 1
0.486275 0.596078 0.827451 1
0.486275 0.596078 0.827451 1
0.486275 0.596078 0.827451 1
0.486275 0.596078 0.827451 1
0.486275 0.596078 0.827451 1
0.486275 0.596078 0.827451 1
0.486275 0.596078 0.827451 1
0.486275 0.596078 0.827451 1
0.486275 0.596078 0.827451 1
0.486275 0.596078 0.827451 1
0.486275 0.596078 0.827451 1
0.486275 0.596078 0.827451 1
0.486275 0.596078 0.827451 1
0.486275 0.596078 0.827451 1
0.486275 0.596078 0.827451 1
0.486275 0.596078 0.827451 1
0.486275 0.596078 0.827451 1
0.486275 0.596078 0.827451 1
0.486275 0.596078 0.827451 1
0.486275 0.596078 0.827451 1
0.486275 0.596078 0.827451 1
0.486275 0.596078 0.827451 1
0.486275 0.596078 0.827451 1
0.486275 0.596078 0.827451 1
0.486275 0.596078 0.827451 1
0.486275 0.596078 0.827451 1
0.486275 0.596078 0.827451 1
0.486275 0.596078 0.827451 1
0.486275 0.596078 0.827451 1
0.486275 0.596078 0.827451 1
0.486275 0.596078 0.827451 1
0.486275 0.596078 0.827451 1
0.486275 0.596078 0.827451 1
0.486275 0.596078 0.827451 1
0.486275 0.596078 0.827451 1
0.486275 0.596078 0.827451 1
0.486275 0.596078 0.827451 1
0.486275 0.596078 0.827451 1
0.486275 0.596078 0.827451 1
0.486275 0.596078 0.827451 1
0.486275 0.596078 0.827451 1
0.486275 0.596078 0.827451 1
0.486275 0.596078 0.827451 1
0.486275 0.596078 0.827451 1
0.486275 0.596078 0.827451 1
0.486275 0.596078 0.827451 1
0.486275 0.596078 0.827451 1
0.486275 0.596078 0.827451 1
0.486275 0.596078 0.827451 1
0.486275 0.596078 0.827451 1
0.486275 0.596078 0.827451 1
0.486275 0.596078 0.827451 1
0.486275 0.596078 0.827451 1
0.486275 0.596078 0.827451 1
0.486275 0.596078 0.827451 1
0.486275 0.596078 0.827451 1
0.486275 0.596078 0.827451 1
0.486275 0.596078 0.827451 1
0.486275 0.596078 0.827451 1
0.486275 0.596078 0.827451 1
0.486275 0.596078 0.827451 1
0.486275 0.596078 0.827451 1
0.486275 0.596078 0.827451 1
0.486275 0.596078 0.827451 1
0.486275 0.596078 0.827451 1
0.486275 0.596078 0.827451 1
0.486275 0.596078 0.827451 1
0.486275 0.596078 0.827451 1
0.486275 0.596078 0.827451 1
0.486275 0.596078 0.827451 1
0.486275 0.596078 0.827451 1
0.486275 0.596078 0.827451 1
0.486275 0.596078 0.827451 1
0.486275 0.596078 0.827451 1
0.486275 0.596078 0.827451 1
0.486275 0.596078 0.827451 1
0.486275 0.596078 0.827451 1
0.486275 0.596078 0.827451 1
0.486275 0.596078 0.827451 1
0.486275 0.596078 0.827451 1
0.486275 0.596078 0.827451 1
0.486275 0.596078 0.827451 1
0.486275 0.596078 0.827451 1
0.486275 0.596078 0.827451 1
0.486275 0.596078 0.827451 1
0.486275 0.596078 0.827451 1
0.486275 0.596078 0.827451 1
0.486275 0.596078 0.827451 1
0.486275 0.596078 0.827451 1
0.486275 0.596078 0.827451 1
0.486275 0.596078 0.827451 1
0.486275 0.596078 0.827451 1
0.486275 0.596078 0.827451 1
0.486275 0.596078 0.827451 1
0.486275 0.596078 0.827451 1
0.486275 0.596078 0.827451 1
0.486275 0.596078 0.827451 1
0.486275 0.596078 0.827451 1
0.486275 0.596078 0.827451 1
0.486275 0.596078 0.827451 1
0.486275 0.596078 0.827451 1
0.486275 0.596078 0.827451 1
0.486275 0.596078 0.827451 1
0.486275 0.596078 0.827451 1
0.486275 0.596078 0.827451 1
0.486275 0.596078 0.827451 1
0.486275 0.596078 0.827451 1
0.486275 0.596078 0.827451 1
0.486275 0.596078 0.827451 1
0.486275 0.596078 0.827451 1
0.486275 0.596078 0.827451 1
0.486275 0.596078 0.827451 1
0.486275 0.596078 0.827451 1
0.486275 0.596078 0.827451 1
0.486275 0.596078 0.827451 1
0.486275 0.596078 0.827451 1
0.486275 0.596078 0.827451 1
0.486275 0.596078 0.827451 1
0.486275 0.596078 0.827451 1
0.486275 0.596078 0.827451 1
0.486275 0.596078 0.827451 1
0.486275 0.596078 0.827451 1
0.486275 0.596078 0.827451 1
0.486275 0.596078 0.827451 1
0.486275 0.596078 0.827451 1
0.486275 0.596078 0.827451 1
0.486275 0.596078 0.827451 1
0.486275 0.596078 0.827451 1
0.486275 0.596078 0.827451 1
0.486275 0.596078 0.827451 1
0.486275 0.596078 0.827451 1
0.486275 0.596078 0.827451 1
0.486275 0.596078 0.827451 1
0.486275 0.596078 0.827451 1
0.486275 0.596078 0.827451 1
0.486275 0.596078 0.827451 1
0.486275 0.596078 0.827451 1
0.486275 0.596078 0.827451 1
0.486275 0.596078 0.827451 1
0.486275 0.596078 0.827451 1
0.486275 0.596078 0.827451 1
0.486275 0.596078 0.827451 1
0.486275 0.596078 0.827451 1
0.486275 0.596078 0.827451 1
0.486275 0.596078 0.827451 1
0.486275 0.596078 0.827451 1
0.486275 0.596078 0.827451 1
0.486275 0.596078 0.827451 1
0.486275 0.596078 0.827451 1
0.486275 0.596078 0.827451 1
0.486275 0.596078 0.827451 1
0.486275 0.596078 0.827451 1
0.486275 0.596078 0.827451 1
0.486275 0.596078 0.827451 1
0.486275 0.596078 0.827451 1
0.486275 0.596078 0.827451 1
0.486275 0.596078 0.827451 1
0.486275 0.596078 0.827451 1
0.486275 0.596078 0.827451 1
0.486275 0.596078 0.827451 1
0.486275 0.596078 0.827451 1
0.486275 0.596078 0.827451 1
0.486275 0.596078 0.827451 1
0.486275 0.596078 0.827451 1
0.486275 0.596078 0.827451 1
0.486275 0.596078 0.827451 1
0.486275 0.596078 0.827451 1
0.486275 0.596078 0.827451 1
0.486275 0.596078 0.827451 1
0.486275 0.596078 0.827451 1
0.486275 0.596078 0.827451 1
0.486275 0.596078 0.827451 1
0.486275 0.596078 0.827451 1
0.486275 0.596078 0.827451 1
0.486275 0.596078 0.827451 1
0.486275 0.596078 0.827451 1
0.486275 0.596078 0.827451 1
0.486275 0.596078 0.827451 1
0.486275 0.596078 0.827451 1
0.486275 0.596078 0.827451 1
0.486275 0.596078 0.827451 1
0.486275 0.596078 0.827451 1
0.486275 0.596078 0.827451 1
0.486275 0.596078 0.827451 1
0.486275 0.596078 0.827451 1
0.486275 0.596078 0.827451 1
0.486275 0.596078 0.827451 1
0.486275 0.596078 0.827451 1
0.486275 0.596078 0.827451 1
0.486275 0.596078 0.827451 1
0.486275 0.596078 0.827451 1
0.486275 0.596078 0.827451 1
0.486275 0.596078 0.827451 1
0.486275 0.596078 0.827451 1
0.486275 0.596078 0.827451 1
0.486275 0.596078 0.827451 1
0.486275 0.596078 0.827451 1
0.486275 0.596078 0.827451 1
0.486275 0.596078 0.827451 1
0.486275 0.596078 0.827451 1
0.486275 0.596078 0.827451 1
0.486275 0.596078 0.827451 1
0.486275 0.596078 0.827451 1
0.486275 0.596078 0.827451 1
0.486275 0.596078 0.827451 1
0.486275 0.596078 0.827451 1
0.486275 0.596078 0.827451 1
0.486275 0.596078 0.827451 1
0.486275 0.596078 0.827451 1
0.486275 0.596078 0.827451 1
0.486275 0.596078 0.827451 1
0.486275 0.596078 0.827451 1
0.486275 0.596078 0.827451 1
0.486275 0.596078 0.827451 1
0.486275 0.596078 0.827451 1
0.486275 0.596078 0.827451 1
0.486275 0.596078 0.827451 1
0.486275 0.596078 0.827451 1
0.486275 0.596078 0.827451 1
0.486275 0.596078 0.827451 1
0.486275 0.596078 0.827451 1
0.486275 0.596078 0.827451 1
0.486275 0.596078 0.827451 1
0.486275 0.596078 0.827451 1
0.486275 0.596078 0.827451 1
0.486275 0.596078 0.827451 1
0.486275 0.596078 0.827451 1
0.486275 0.596078 0.827451 1
0.486275 0.596078 0.827451 1
0.486275 0.596078 0.827451 1
0.486275 0.596078 0.827451 1
0.486275 0.596078 0.827451 1
0.486275 0.596078 0.827451 1
0.486275 0.596078 0.827451 1
0.486275 0.596078 0.827451 1
0.486275 0.596078 0.827451 1
0.486275 0.596078 0.827451 1
0.486275 0.596078 0.827451 1
0.486275 0.596078 0.827451 1
0.486275 0.596078 0.827451 1
0.486275 0.596078 0.827451 1
0.486275 0.596078 0.827451 1
0.486275 0.596078 0.827451 1
0.486275 0.596078 0.827451 1
0.486275 0.596078 0.827451 1
0.486275 0.596078 0.827451 1
0.486275 0.596078 0.827451 1
0.486275 0.596078 0.827451 1
0.486275 0.596078 0.827451 1
0.486275 0.596078 0.827451 1
0.486275 0.596078 0.827451 1
0.486275 0.596078 0.827451 1
0.486275 0.596078 0.827451 1
0.486275 0.596078 0.827451 1
0.486275 0.596078 0.827451 1
0.486275 0.596078 0.827451 1
0.486275 0.596078 0.827451 1
0.486275 0.596078 0.827451 1
0.486275 0.596078 0.827451 1
0.486275 0.596078 0.827451 1
0.486275 0.596078 0.827451 1
0.486275 0.596078 0.827451 1
0.486275 0.596078 0.827451 1
0.486275 0.596078 0.827451 1
0.486275 0.596078 0.827451 1
0.486275 0.596078 0.827451 1
0.486275 0.596078 0.827451 1
0.486275 0.596078 0.827451 1
0.486275 0.596078 0.827451 1
0.486275 0.596078 0.827451 1
0.486275 0.596078 0.827451 1
0.486275 0.596078 0.827451 1
0.486275 0.596078 0.827451 1
0.486275 0.596078 0.827451 1
0.486275 0.596078 0.827451 1
0.486275 0.596078 0.827451 1
0.486275 0.596078 0.827451 1
0.486275 0.596078 0.827451 1
0.486275 0.596078 0.827451 1
0.486275 0.596078 0.827451 1
0.486275 0.596078 0.827451 1
0.486275 0.596078 0.827451 1
0.486275 0.596078 0.827451 1
0.486275 0.596078 0.827451 1
0.486275 0.596078 0.827451 1
0.486275 0.596078 0.827451 1
0.486275 0.596078 0.827451 1
0.486275 0.596078 0.827451 1
0.486275 0.596078 0.827451 1
0.486275 0.596078 0.827451 1
0.486275 0.596078 0.827451 1
0.486275 0.596078 0.827451 1
0.486275 0.596078 0.827451 1
0.486275 0.596078 0.827451 1
0.486275 0.596078 0.827451 1
0.486275 0.596078 0.827451 1
0.486275 0.596078 0.827451 1
0.486275 0.596078 0.827451 1
0.486275 0.596078 0.827451 1
0.486275 0.596078 0.827451 1
0.486275 0.596078 0.827451 1
0.486275 0.596078 0.827451 1
0.486275 0.596078 0.827451 1
0.486275 0.596078 0.827451 1
0.486275 0.596078 0.827451 1
0.486275 0.596078 0.827451 1
0.486275 0.596078 0.827451 1
0.486275 0.596078 0.827451 1
0.486275 0.596078 0.827451 1
0.486275 0.596078 0.827451 1
0.486275 0.596078 0.827451 1
0.486275 0.596078 0.827451 1
0.486275 0.596078 0.827451 1
0.486275 0.596078 0.827451 1
0.486275 0.596078 0.827451 1
0.486275 0.596078 0.827451 1
0.486275 0.596078 0.827451 1
0.486275 0.596078 0.827451 1
0.486275 0.596078 0.827451 1
0.486275 0.596078 0.827451 1
0.486275 0.596078 0.827451 1
0.486275 0.596078 0.827451 1
0.486275 0.596078 0.827451 1
0.486275 0.596078 0.827451 1
0.486275 0.596078 0.827451 1
0.486275 0.596078 0.827451 1
0.486275 0.596078 0.827451 1
0.486275 0.596078 0.827451 1
0.486275 0.596078 0.827451 1
0.486275 0.596078 0.827451 1
0.486275 0.596078 0.827451 1
0.486275 0.596078 0.827451 1
0.486275 0.596078 0.827451 1
0.486275 0.596078 0.827451 1
0.486275 0.596078 0.827451 1
0.486275 0.596078 0.827451 1
0.486275 0.596078 0.827451 1
0.486275 0.596078 0.827451 1
0.486275 0.596078 0.827451 1
0.486275 0.596078 0.827451 1
0.486275 0.596078 0.827451 1
0.486275 0.596078 0.827451 1
0.486275 0.596078 0.827451 1
0.486275 0.596078 0.827451 1
0.486275 0.596078 0.827451 1
0.486275 0.596078 0.827451 1
0.486275 0.596078 0.827451 1
0.486275 0.596078 0.827451 1
0.486275 0.596078 0.827451 1
0.486275 0.596078 0.827451 1
0.486275 0.596078 0.827451 1
0.486275 0.596078 0.827451 1
0.486275 0.596078 0.827451 1
0.486275 0.596078 0.827451 1
0.486275 0.596078 0.827451 1
0.486275 0.596078 0.827451 1
0.486275 0.596078 0.827451 1
0.486275 0.596078 0.827451 1
0.486275 0.596078 0.827451 1
0.486275 0.596078 0.827451 1
0.486275 0.596078 0.827451 1
0.486275 0.596078 0.827451 1
0.486275 0.596078 0.827451 1
0.486275 0.596078 0.827451 1
0.486275 0.596078 0.827451 1
0.486275 0.596078 0.827451 1
0.486275 0.596078 0.827451 1
0.486275 0.596078 0.827451 1
0.486275 0.596078 0.827451 1
0.486275 0.596078 0.827451 1
0.486275 0.596078 0.827451 1
0.486275 0.596078 0.827451 1
0.486275 0.596078 0.827451 1
0.486275 0.596078 0.827451 1
0.486275 0.596078 0.827451 1
0.486275 0.596078 0.827451 1
0.486275 0.596078 0.827451 1
0.486275 0.596078 0.827451 1
0.486275 0.596078 0.827451 1
0.486275 0.596078 0.827451 1
0.486275 0.596078 0.827451 1
0.486275 0.596078 0.827451 1
0.486275 0.596078 0.827451 1
0.486275 0.596078 0.827451 1
0.486275 0.596078 0.827451 1
0.486275 0.596078 0.827451 1
0.486275 0.596078 0.827451 1
0.486275 0.596078 0.827451 1
0.486275 0.596078 0.827451 1
0.486275 0.596078 0.827451 1
0.486275 0.596078 0.827451 1
0.486275 0.596078 0.827451 1
0.486275 0.596078 0.827451 1
0.486275 0.596078 0.827451 1
0.486275 0.596078 0.827451 1
0.486275 0.596078 0.827451 1
0.486275 0.596078 0.827451 1
0.486275 0.596078 0.827451 1
0.486275 0.596078 0.827451 1
0.486275 0.596078 0.827451 1
0.486275 0.596078 0.827451 1
0.486275 0.596078 0.827451 1
0.486275 0.596078 0.827451 1
0.486275 0.596078 0.827451 1
0.486275 0.596078 0.827451 1
0.486275 0.596078 0.827451 1
0.486275 0.596078 0.827451 1
0.486275 0.596078 0.827451 1
0.486275 0.596078 0.827451 1
0.486275 0.596078 0.827451 1
0.486275 0.596078 0.827451 1
0.486275 0.596078 0.827451 1
0.486275 0.596078 0.827451 1
0.486275 0.596078 0.827451 1
0.486275 0.596078 0.827451 1
0.486275 0.596078 0.827451 1
0.486275 0.596078 0.827451 1
0.486275 0.596078 0.827451 1
0.486275 0.596078 0.827451 1
0.486275 0.596078 0.827451 1
0.486275 0.596078 0.827451 1
0.486275 0.596078 0.827451 1
0.486275 0.596078 0.827451 1
0.486275 0.596078 0.827451 1
0.486275 0.596078 0.827451 1
0.486275 0.596078 0.827451 1
0.486275 0.596078 0.827451 1
0.486275 0.596078 0.827451 1
0.486275 0.596078 0.827451 1
0.486275 0.596078 0.827451 1
0.486275 0.596078 0.827451 1
0.486275 0.596078 0.827451 1
0.486275 0.596078 0.827451 1
0.486275 0.596078 0.827451 1
0.486275 0.596078 0.827451 1
0.486275 0.596078 0.827451 1
0.486275 0.596078 0.827451 1
0.486275 0.596078 0.827451 1
0.486275 0.596078 0.827451 1
0.486275 0.596078 0.827451 1
0.486275 0.596078 0.827451 1
0.486275 0.596078 0.827451 1
0.486275 0.596078 0.827451 1
0.486275 0.596078 0.827451 1
0.486275 0.596078 0.827451 1
0.486275 0.596078 0.827451 1
0.486275 0.596078 0.827451 1
0.486275 0.596078 0.827451 1
0.486275 0.596078 0.827451 1
0.486275 0.596078 0.827451 1
0.486275 0.596078 0.827451 1
0.486275 0.596078 0.827451 1
0.486275 0.596078 0.827451 1
0.486275 0.596078 0.827451 1
0.486275 0.596078 0.827451 1
0.486275 0.596078 0.827451 1
0.486275 0.596078 0.827451 1
0.486275 0.596078 0.827451 1
0.486275 0.596078 0.827451 1
0.486275 0.596078 0.827451 1
0.486275 0.596078 0.827451 1
0.486275 0.596078 0.827451 1
0.486275 0.596078 0.827451 1
0.486275 0.596078 0.827451 1
0.486275 0.596078 0.827451 1
0.486275 0.596078 0.827451 1
0.486275 0.596078 0.827451 1
0.486275 0.596078 0.827451 1
0.486275 0.596078 0.827451 1
0.486275 0.596078 0.827451 1
0.486275 0.596078 0.827451 1
0.486275 0.596078 0.827451 1
0.486275 0.596078 0.827451 1
0.486275 0.596078 0.827451 1
0.486275 0.596078 0.827451 1
0.486275 0.596078 0.827451 1
0.486275 0.596078 0.827451 1
0.486275 0.596078 0.827451 1
0.486275 0.596078 0.827451 1
0.486275 0.596078 0.827451 1
0.486275 0.596078 0.827451 1
0.486275 0.596078 0.827451 1
0.486275 0.596078 0.827451 1
0.486275 0.596078 0.827451 1
0.486275 0.596078 0.827451 1
0.486275 0.596078 0.827451 1
0.486275 0.596078 0.827451 1
0.486275 0.596078 0.827451 1
0.486275 0.596078 0.827451 1
0.486275 0.596078 0.827451 1
0.486275 0.596078 0.827451 1
0.486275 0.596078 0.827451 1
0.486275 0.596078 0.827451 1
0.486275 0.596078 0.827451 1
0.486275 0.596078 0.827451 1
0.486275 0.596078 0.827451 1
0.486275 0.596078 0.827451 1
0.486275 0.596078 0.827451 1
0.486275 0.596078 0.827451 1
0.486275 0.596078 0.827451 1
0.486275 0.596078 0.827451 1
0.486275 0.596078 0.827451 1
0.486275 0.596078 0.827451 1
0.486275 0.596078 0.827451 1
0.486275 0.596078 0.827451 1
0.486275 0.596078 0.827451 1
0.486275 0.596078 0.827451 1
0.486275 0.596078 0.827451 1
0.486275 0.596078 0.827451 1
0.486275 0.596078 0.827451 1
0.486275 0.596078 0.827451 1
0.486275 0.596078 0.827451 1
0.486275 0.596078 0.827451 1
0.486275 0.596078 0.827451 1
0.486275 0.596078 0.827451 1
0.486275 0.596078 0.827451 1
0.486275 0.596078 0.827451 1
0.486275 0.596078 0.827451 1
0.486275 0.596078 0.827451 1