# vtk DataFile Version 3.0
Gocad TSurf to VTK
ASCII
DATASET POLYDATA
POINTS 230 float
21621872.789 4542328.451 -300.701
21621850.406 4542321.059 -300.643
21621878.563 4542373.346 -650.321
21621663.672 4542253.711 -300.643
21621889.758 4542377.043 -650.351
21621855.820 4542279.859 48.948
21621822.242 4542268.771 49.036
21621889.398 4542290.949 48.860
21621895.172 4542335.844 -300.760
21621883.625 4542246.055 398.480
21621838.852 4542231.270 398.597
21621928.398 4542260.840 398.552
21621922.984 4542302.039 48.914
21621958.102 4542278.418 398.639
21621945.258 4542315.223 48.979
21621917.563 4542343.236 -300.724
21621987.805 4542295.998 398.726
21621967.531 4542328.406 49.044
21621932.414 4542352.025 -300.681
21622013.453 4542317.691 49.044
21622039.102 4542339.387 -300.637
21622011.617 4542292.033 49.151
21622037.875 4542322.281 -300.566
21621985.359 4542261.785 398.868
21622031.516 4542229.277 49.151
21622029.688 4542203.617 49.258
21622077.672 4542196.770 -300.566
21621982.914 4542227.570 399.011
21622027.852 4542177.957 49.422
21622076.453 4542179.662 -300.494
21621980.469 4542193.357 399.229
21622030.414 4542155.000 49.697
21622058.477 4542155.000 -165.404
21622019.500 4542155.000 133.347
21621984.750 4542155.000 399.689
21622075.234 4542162.555 -300.385
21622076.078 4542155.000 -300.295
21622098.477 4542155.000 -471.984
21622123.172 4542155.000 -650.243
21622123.219 4542155.707 -650.247
21622124.602 4542155.000 -660.571
21622123.836 4542164.262 -650.283
21622136.984 4542155.000 -749.920
21622090.398 4542382.775 -1000.000
21622064.141 4542352.527 -650.283
21622146.945 4542155.000 -847.057
21622162.625 4542155.000 -1000.000
21622166.719 4542155.000 -1045.000
21622140.906 4542338.387 -1400.000
21622122.539 4542407.266 -1400.000
21622199.055 4542155.000 -1400.000
21622200.289 4542155.000 -1413.564
21622191.422 4542294.000 -1800.000
21622154.688 4542431.754 -1800.000
21622208.734 4542155.000 -1506.253
21622231.219 4542168.488 -1800.000
21622241.930 4542249.611 -2200.000
21622229.188 4542155.000 -1751.713
21622233.211 4542155.000 -1800.000
21622261.828 4542186.855 -2200.000
21622261.352 4542155.000 -2137.874
21622266.531 4542155.000 -2200.000
21622292.438 4542205.223 -2600.000
21622294.242 4542155.000 -2532.693
21622299.844 4542155.000 -2600.000
21622307.617 4542190.916 -2666.762
21622302.586 4542211.705 -2664.454
21622313.703 4542155.000 -2670.770
21622232.758 4542454.959 -2637.541
21622218.969 4542480.734 -2600.000
21622226.328 4542477.361 -2635.062
21622186.828 4542456.244 -2200.000
21622062.844 4542525.121 -2200.000
21622072.031 4542477.672 -1800.000
21622053.664 4542572.570 -2600.000
21622016.930 4542535.836 -2200.000
21622067.758 4542569.047 -2625.992
21622058.461 4542574.131 -2625.493
21622221.367 4542485.076 -2634.231
21622053.555 4542575.676 -2625.358
21621933.953 4542592.646 -2624.412
21621925.094 4542590.938 -2600.000
21621927.227 4542593.602 -2624.359
21621920.500 4542549.611 -2200.000
21621980.195 4542499.102 -1800.000
21621759.781 4542499.102 -2200.000
21621808.766 4542474.613 -1800.000
21621710.805 4542523.592 -2600.000
21621666.422 4542465.428 -2200.000
21621724.789 4542531.953 -2632.968
21621709.625 4542527.268 -2633.620
21621920.477 4542592.439 -2624.545
21621685.555 4542520.568 -2634.573
21621395.375 4542439.811 -2646.052
21621386.313 4542431.754 -2600.000
21621376.484 4542434.416 -2646.815
21621423.047 4542396.551 -2200.000
21621622.031 4542407.266 -1800.000
21621361.828 4542385.836 -2200.000
21621459.781 4542361.346 -1800.000
21621040.398 4542289.408 -2200.000
21621123.047 4542275.633 -1800.000
21620957.742 4542303.184 -2600.000
21620969.984 4542272.570 -2200.000
21621020.227 4542329.307 -2661.583
21620963.891 4542312.688 -2663.918
21620941.430 4542300.895 -2665.433
21620799.766 4542214.822 -2676.307
21620717.445 4542155.000 -2600.000
21620701.305 4542155.000 -2683.865
21620746.313 4542155.000 -2397.279
21620898.047 4542231.244 -2200.000
21620774.406 4542155.000 -2200.000
21620828.875 4542155.000 -1817.578
21620838.359 4542159.305 -1800.000
21620982.234 4542241.959 -1800.000
21620831.375 4542155.000 -1800.000
21620834.789 4542155.000 -1776.064
21620994.484 4542211.348 -1400.000
21620896.398 4542155.000 -1400.000
21620943.867 4542155.000 -1110.250
21621006.727 4542180.734 -1000.000
21621205.703 4542261.855 -1400.000
21620961.930 4542155.000 -1000.000
21620993.414 4542155.000 -800.406
21620998.883 4542155.000 -777.920
21621005.727 4542155.000 -749.822
21621009.258 4542155.000 -735.308
21621014.516 4542155.000 -713.693
21621026.242 4542155.000 -665.516
21621030.016 4542155.000 -650.140
21621038.047 4542158.307 -650.164
21621048.953 4542162.795 -650.203
21621039.047 4542155.000 -613.324
21621042.664 4542155.000 -598.586
21621054.867 4542155.000 -548.879
21621067.305 4542155.000 -498.212
21621260.180 4542213.305 -650.203
21621288.359 4542248.080 -1000.000
21621116.234 4542155.000 -352.248
21621133.609 4542155.000 -300.406
21621232.000 4542178.529 -300.406
21621249.414 4542177.641 -300.373
21621187.063 4542155.000 -140.936
21621212.938 4542155.000 -63.731
21621230.656 4542155.000 -72.430
21621236.891 4542155.000 -75.493
21621253.531 4542155.000 -83.658
21621266.828 4542176.754 -300.340
21621268.891 4542212.861 -650.187
21621260.258 4542155.000 -86.955
21621275.852 4542155.000 -94.609
21621284.234 4542175.865 -300.307
21621277.594 4542212.416 -650.170
21621283.039 4542155.000 -98.143
21621301.633 4542155.000 -82.034
21621304.203 4542177.641 -300.302
21621286.297 4542211.973 -650.154
21621309.297 4542155.000 -75.399
21621324.172 4542179.418 -300.297
21621306.266 4542213.750 -650.149
21621316.219 4542155.000 -69.395
21621336.906 4542155.000 -51.473
21621344.141 4542181.195 -300.293
21621316.250 4542214.637 -650.146
21621342.641 4542155.000 -46.499
21621365.984 4542155.000 -26.261
21621365.063 4542183.438 -300.292
21621326.711 4542215.760 -650.146
21621370.617 4542155.000 -21.497
21621398.797 4542155.000 7.532
21621409.484 4542155.000 24.289
21621487.508 4542204.867 -300.292
21621510.383 4542247.902 -650.146
21621425.594 4542155.000 49.562
21621464.633 4542161.832 49.562
21621496.016 4542165.199 49.562
21621461.000 4542155.000 105.103
21621467.992 4542155.000 111.573
21621492.992 4542155.000 134.699
21621504.031 4542155.000 144.909
21621527.391 4542168.566 49.563
21621508.430 4542207.113 -300.292
21621526.742 4542155.000 165.919
21621549.727 4542155.000 232.010
21621560.969 4542179.654 49.475
21621529.344 4542209.355 -300.291
21621567.109 4542155.000 281.986
21621607.883 4542155.000 399.202
21621614.984 4542157.346 399.183
21621594.555 4542190.744 49.387
21621574.125 4542224.141 -300.408
21621628.133 4542201.832 49.299
21621596.508 4542231.535 -300.467
21621659.758 4542172.131 399.066
21621661.711 4542212.922 49.212
21621618.891 4542238.926 -300.526
21621704.531 4542186.916 398.949
21621695.297 4542224.008 49.124
21621641.281 4542246.318 -300.584
21621749.305 4542201.699 398.832
21621728.875 4542235.098 49.036
21621794.078 4542216.484 398.714
21621598.461 4542272.324 -650.321
21621587.266 4542268.629 -650.292
21621906.727 4542425.633 -1000.000
21621533.258 4542290.938 -1000.000
21621900.953 4542380.738 -650.380
21621912.141 4542384.434 -650.362
21621919.570 4542388.828 -650.340
21621927.000 4542393.225 -650.319
21621947.266 4542360.816 -300.637
21622064.750 4542361.082 -650.319
21622081.219 4542430.225 -1400.000
21621943.461 4542462.367 -1400.000
21621915.906 4542508.285 -1800.000
21621911.320 4542466.959 -1400.000
21621857.750 4542450.123 -1400.000
21621577.641 4542349.102 -1400.000
21621496.523 4542326.141 -1400.000
21621337.336 4542339.918 -1800.000
21621312.844 4542293.998 -1400.000
21621296.281 4542212.861 -650.151
21621520.844 4542249.025 -650.146
21621531.305 4542250.146 -650.146
21621542.500 4542253.844 -650.175
21621551.734 4542216.750 -300.350
21621553.688 4542257.539 -650.204
21621564.883 4542261.236 -650.234
21621576.078 4542264.932 -650.263

POLYGONS 354 1416
3 74 69 72
3 130 129 121
3 18 15 208
3 174 171 172
3 45 42 43
3 69 78 70
3 121 120 118
3 149 142 137
3 206 205 203
3 193 191 228
3 64 63 62
3 107 108 109
3 206 227 225
3 193 190 191
3 23 16 21
3 7 9 5
3 187 185 188
3 206 225 224
3 67 64 65
3 73 84 75
3 72 73 75
3 36 32 35
3 99 97 218
3 40 38 39
3 152 148 153
3 138 222 157
3 101 220 122
3 150 147 148
3 37 36 35
3 155 152 156
3 222 156 157
3 180 179 176
3 172 171 167
3 138 157 153
3 185 189 188
3 215 214 216
3 148 142 149
3 73 213 84
3 123 120 121
3 44 41 26
3 69 71 72
3 103 115 111
3 73 53 213
3 17 16 14
3 136 135 132
3 205 210 209
3 96 99 98
3 87 85 88
3 83 75 84
3 32 28 35
3 101 118 115
3 214 205 216
3 163 159 164
3 206 229 228
3 16 13 14
3 190 185 191
3 39 29 41
3 201 198 3
3 29 26 41
3 62 69 68
3 47 43 48
3 171 170 167
3 203 199 204
3 122 121 118
3 12 7 8
3 15 12 8
3 31 33 30
3 59 55 56
3 206 203 204
3 192 189 190
3 198 195 199
3 49 43 213
3 208 15 207
3 211 20 17
3 46 45 43
3 154 151 152
3 106 102 107
3 74 77 76
3 209 18 208
3 4 0 2
3 115 118 114
3 137 136 132
3 196 192 193
3 91 81 89
3 3 198 199
3 210 211 209
3 102 103 111
3 138 153 149
3 43 205 213
3 203 2 3
3 192 190 193
3 54 51 52
3 68 69 70
3 176 175 172
3 224 186 223
3 5 6 1
3 221 138 122
3 55 52 56
3 151 150 148
3 166 165 163
3 54 52 55
3 206 204 229
3 100 115 103
3 157 152 153
3 10 202 6
3 102 105 104
3 134 131 132
3 173 172 167
3 38 35 39
3 102 100 103
3 177 174 175
3 18 14 15
3 43 41 44
3 12 11 7
3 0 5 1
3 98 220 101
3 216 205 217
3 81 74 75
3 120 119 118
3 179 178 176
3 57 54 55
3 186 181 182
3 38 37 35
3 94 87 88
3 125 124 121
3 218 206 219
3 215 84 214
3 138 160 222
3 217 218 97
3 15 8 207
3 96 97 99
3 205 206 218
3 85 83 86
3 151 148 152
3 102 94 100
3 30 27 28
3 134 133 131
3 87 94 93
3 27 23 25
3 219 221 220
3 138 137 132
3 35 28 29
3 69 76 78
3 17 14 18
3 117 116 114
3 156 152 157
3 140 139 137
3 202 200 201
3 168 173 167
3 116 113 114
3 31 30 28
3 211 18 209
3 113 111 114
3 226 185 186
3 42 41 43
3 102 106 105
3 175 174 172
3 206 138 219
3 219 138 221
3 119 117 118
3 223 182 173
3 190 189 185
3 86 215 217
3 142 141 137
3 21 19 22
3 61 60 59
3 129 128 121
3 145 144 141
3 28 27 25
3 195 194 192
3 71 52 53
3 211 17 18
3 182 172 173
3 80 81 82
3 11 9 7
3 195 192 196
3 74 81 80
3 141 140 137
3 22 19 20
3 62 66 65
3 71 56 52
3 86 97 88
3 143 140 141
3 206 223 173
3 33 34 30
3 138 149 137
3 146 145 142
3 40 39 41
3 133 130 131
3 35 29 39
3 90 87 92
3 96 88 97
3 5 10 6
3 74 79 77
3 117 114 118
3 138 164 160
3 94 88 96
3 32 31 28
3 210 212 211
3 0 1 2
3 168 163 164
3 126 125 121
3 197 194 195
3 6 202 201
3 122 118 101
3 20 19 17
3 8 0 4
3 58 57 55
3 7 5 0
3 22 26 24
3 28 25 29
3 72 71 73
3 200 197 198
3 182 176 172
3 113 112 111
3 1 6 201
3 180 176 181
3 43 212 210
3 206 173 168
3 127 126 121
3 170 169 167
3 110 108 102
3 220 221 122
3 147 142 148
3 82 81 91
3 14 13 12
3 213 214 84
3 162 161 159
3 204 196 229
3 71 53 73
3 201 200 198
3 196 193 229
3 185 181 186
3 3 199 203
3 101 115 100
3 25 23 24
3 145 141 142
3 94 102 104
3 183 180 181
3 42 40 41
3 164 159 160
3 69 56 71
3 187 184 185
3 2 1 3
3 99 220 98
3 112 110 111
3 158 156 159
3 217 205 218
3 8 7 0
3 160 156 222
3 229 193 228
3 22 24 21
3 44 20 212
3 165 162 163
3 48 43 49
3 94 96 98
3 128 127 121
3 194 189 192
3 199 195 196
3 181 176 182
3 81 83 85
3 43 44 212
3 85 86 88
3 124 123 121
3 74 80 79
3 22 20 44
3 135 134 132
3 205 2 203
3 53 48 49
3 86 217 97
3 205 4 2
3 138 206 168
3 166 163 167
3 178 175 176
3 3 1 201
3 87 81 85
3 83 84 215
3 53 49 213
3 25 24 26
3 47 46 43
3 13 11 12
3 92 87 93
3 199 196 204
3 50 47 48
3 162 159 163
3 24 23 21
3 227 226 225
3 138 168 164
3 51 50 48
3 89 87 90
3 94 98 100
3 99 219 220
3 213 205 214
3 155 154 152
3 205 209 208
3 94 95 93
3 83 215 86
3 153 148 149
3 99 218 219
3 131 130 121
3 225 226 224
3 144 143 141
3 62 68 66
3 205 43 210
3 69 74 76
3 205 208 207
3 206 224 223
3 102 108 107
3 21 16 19
3 191 226 227
3 138 121 122
3 62 59 56
3 69 62 56
3 206 228 227
3 95 94 104
3 81 87 89
3 121 138 132
3 58 55 59
3 186 182 223
3 178 177 175
3 228 191 227
3 184 183 181
3 147 146 142
3 110 102 111
3 44 26 22
3 167 163 168
3 51 48 52
3 63 61 62
3 115 114 111
3 161 158 159
3 226 186 224
3 64 62 65
3 184 181 185
3 159 156 160
3 212 20 211
3 14 12 15
3 9 10 5
3 139 136 137
3 169 166 167
3 19 16 17
3 158 155 156
3 61 59 62
3 121 132 131
3 100 98 101
3 191 185 226
3 205 207 4
3 198 197 195
3 60 58 59
3 29 25 26
3 215 216 217
3 53 52 48
3 81 75 83
3 207 8 4
3 74 72 75

POINT_DATA 230
COLOR_SCALARS GocadColor 4
0.5 1 0.25 1
0.5 1 0.25 1
0.5 1 0.25 1
0.5 1 0.25 1
0.5 1 0.25 1
0.5 1 0.25 1
0.5 1 0.25 1
0.5 1 0.25 1
0.5 1 0.25 1
0.5 1 0.25 1
0.5 1 0.25 1
0.5 1 0.25 1
0.5 1 0.25 1
0.5 1 0.25 1
0.5 1 0.25 1
0.5 1 0.25 1
0.5 1 0.25 1
0.5 1 0.25 1
0.5 1 0.25 1
0.5 1 0.25 1
0.5 1 0.25 1
0.5 1 0.25 1
0.5 1 0.25 1
0.5 1 0.25 1
0.5 1 0.25 1
0.5 1 0.25 1
0.5 1 0.25 1
0.5 1 0.25 1
0.5 1 0.25 1
0.5 1 0.25 1
0.5 1 0.25 1
0.5 1 0.25 1
0.5 1 0.25 1
0.5 1 0.25 1
0.5 1 0.25 1
0.5 1 0.25 1
0.5 1 0.25 1
0.5 1 0.25 1
0.5 1 0.25 1
0.5 1 0.25 1
0.5 1 0.25 1
0.5 1 0.25 1
0.5 1 0.25 1
0.5 1 0.25 1
0.5 1 0.25 1
0.5 1 0.25 1
0.5 1 0.25 1
0.5 1 0.25 1
0.5 1 0.25 1
0.5 1 0.25 1
0.5 1 0.25 1
0.5 1 0.25 1
0.5 1 0.25 1
0.5 1 0.25 1
0.5 1 0.25 1
0.5 1 0.25 1
0.5 1 0.25 1
0.5 1 0.25 1
0.5 1 0.25 1
0.5 1 0.25 1
0.5 1 0.25 1
0.5 1 0.25 1
0.5 1 0.25 1
0.5 1 0.25 1
0.5 1 0.25 1
0.5 1 0.25 1
0.5 1 0.25 1
0.5 1 0.25 1
0.5 1 0.25 1
0.5 1 0.25 1
0.5 1 0.25 1
0.5 1 0.25 1
0.5 1 0.25 1
0.5 1 0.25 1
0.5 1 0.25 1
0.5 1 0.25 1
0.5 1 0.25 1
0.5 1 0.25 1
0.5 1 0.25 1
0.5 1 0.25 1
0.5 1 0.25 1
0.5 1 0.25 1
0.5 1 0.25 1
0.5 1 0.25 1
0.5 1 0.25 1
0.5 1 0.25 1
0.5 1 0.25 1
0.5 1 0.25 1
0.5 1 0.25 1
0.5 1 0.25 1
0.5 1 0.25 1
0.5 1 0.25 1
0.5 1 0.25 1
0.5 1 0.25 1
0.5 1 0.25 1
0.5 1 0.25 1
0.5 1 0.25 1
0.5 1 0.25 1
0.5 1 0.25 1
0.5 1 0.25 1
0.5 1 0.25 1
0.5 1 0.25 1
0.5 1 0.25 1
0.5 1 0.25 1
0.5 1 0.25 1
0.5 1 0.25 1
0.5 1 0.25 1
0.5 1 0.25 1
0.5 1 0.25 1
0.5 1 0.25 1
0.5 1 0.25 1
0.5 1 0.25 1
0.5 1 0.25 1
0.5 1 0.25 1
0.5 1 0.25 1
0.5 1 0.25 1
0.5 1 0.25 1
0.5 1 0.25 1
0.5 1 0.25 1
0.5 1 0.25 1
0.5 1 0.25 1
0.5 1 0.25 1
0.5 1 0.25 1
0.5 1 0.25 1
0.5 1 0.25 1
0.5 1 0.25 1
0.5 1 0.25 1
0.5 1 0.25 1
0.5 1 0.25 1
0.5 1 0.25 1
0.5 1 0.25 1
0.5 1 0.25 1
0.5 1 0.25 1
0.5 1 0.25 1
0.5 1 0.25 1
0.5 1 0.25 1
0.5 1 0.25 1
0.5 1 0.25 1
0.5 1 0.25 1
0.5 1 0.25 1
0.5 1 0.25 1
0.5 1 0.25 1
0.5 1 0.25 1
0.5 1 0.25 1
0.5 1 0.25 1
0.5 1 0.25 1
0.5 1 0.25 1
0.5 1 0.25 1
0.5 1 0.25 1
0.5 1 0.25 1
0.5 1 0.25 1
0.5 1 0.25 1
0.5 1 0.25 1
0.5 1 0.25 1
0.5 1 0.25 1
0.5 1 0.25 1
0.5 1 0.25 1
0.5 1 0.25 1
0.5 1 0.25 1
0.5 1 0.25 1
0.5 1 0.25 1
0.5 1 0.25 1
0.5 1 0.25 1
0.5 1 0.25 1
0.5 1 0.25 1
0.5 1 0.25 1
0.5 1 0.25 1
0.5 1 0.25 1
0.5 1 0.25 1
0.5 1 0.25 1
0.5 1 0.25 1
0.5 1 0.25 1
0.5 1 0.25 1
0.5 1 0.25 1
0.5 1 0.25 1
0.5 1 0.25 1
0.5 1 0.25 1
0.5 1 0.25 1
0.5 1 0.25 1
0.5 1 0.25 1
0.5 1 0.25 1
0.5 1 0.25 1
0.5 1 0.25 1
0.5 1 0.25 1
0.5 1 0.25 1
0.5 1 0.25 1
0.5 1 0.25 1
0.5 1 0.25 1
0.5 1 0.25 1
0.5 1 0.25 1
0.5 1 0.25 1
0.5 1 0.25 1
0.5 1 0.25 1
0.5 1 0.25 1
0.5 1 0.25 1
0.5 1 0.25 1
0.5 1 0.25 1
0.5 1 0.25 1
0.5 1 0.25 1
0.5 1 0.25 1
0.5 1 0.25 1
0.5 1 0.25 1
0.5 1 0.25 1
0.5 1 0.25 1
0.5 1 0.25 1
0.5 1 0.25 1
0.5 1 0.25 1
0.5 1 0.25 1
0.5 1 0.25 1
0.5 1 0.25 1
0.5 1 0.25 1
0.5 1 0.25 1
0.5 1 0.25 1
0.5 1 0.25 1
0.5 1 0.25 1
0.5 1 0.25 1
0.5 1 0.25 1
0.5 1 0.25 1
0.5 1 0.25 1
0.5 1 0.25 1
0.5 1 0.25 1
0.5 1 0.25 1
0.5 1 0.25 1
0.5 1 0.25 1
0.5 1 0.25 1
0.5 1 0.25 1
0.5 1 0.25 1
0.5 1 0.25 1
0.5 1 0.25 1
0.5 1 0.25 1

