# vtk DataFile Version 3.0
Gocad TSurf to VTK
ASCII
DATASET POLYDATA
POINTS 1470 float
21573717.672 4544422.090 -2808.708
21573209.297 4544125.227 -2848.163
21573136.891 4544139.801 -2750.000
21573153.813 4544084.051 -2853.926
21573787.078 4544491.832 -2750.000
21573176.406 4544427.172 -2500.000
21573779.203 4544454.223 -2810.873
21573872.797 4544496.930 -2816.538
21574036.938 4544613.563 -2750.000
21574042.516 4544603.832 -2772.593
21573906.156 4544744.180 -2501.423
21573902.031 4544743.281 -2500.000
21573905.453 4544744.914 -2500.000
21573463.781 4544621.148 -2500.000
21573215.922 4544714.547 -2250.000
21573276.984 4545131.234 -1700.000
21572623.219 4544628.336 -2000.000
21573780.406 4544858.172 -2295.857
21573724.813 4544912.859 -2199.882
21573903.609 4544746.730 -2496.570
21573904.016 4544746.332 -2497.323
21573904.484 4544745.867 -2498.200
21573717.141 4544919.586 -2187.642
21573738.938 4544900.488 -2222.384
21573710.328 4544936.441 -2163.386
21573690.656 4544984.043 -2094.665
21573611.219 4545176.172 -1817.282
21573611.297 4545176.184 -1817.309
21573612.875 4545201.953 -1763.950
21573614.875 4545232.867 -1700.000
21573619.469 4545247.355 -1665.247
21573629.219 4545274.188 -1601.872
21573644.875 4545317.324 -1500.000
21573651.719 4545336.164 -1455.504
21573658.422 4545360.848 -1400.000
21573298.531 4545260.555 -1400.000
21573659.422 4545364.516 -1391.752
21573090.203 4545052.207 -1700.000
21572924.969 4545102.500 -1400.000
21572616.031 4544772.023 -1700.000
21573320.094 4545389.871 -1100.000
21573663.188 4545378.410 -1360.510
21572601.672 4545059.391 -1100.000
21572608.844 4544915.707 -1400.000
21572454.969 4545274.668 -468.717
21572030.516 4544628.336 -1100.000
21573345.141 4545632.008 -474.697
21573661.953 4545570.191 -943.127
21572719.672 4545527.609 -160.106
21572584.297 4545483.422 -143.274
21573208.703 4545716.328 -166.369
21573443.813 4545752.773 -138.459
21572782.266 4545689.875 159.841
21573072.969 4545796.500 143.049
21572678.375 4545662.281 176.631
21572546.938 4545608.855 186.047
21572798.688 4545839.879 487.250
21572844.859 4545852.141 479.788
21572752.500 4545827.613 494.714
21572706.328 4545815.348 502.175
21572660.141 4545803.082 509.639
21572617.125 4545783.426 512.174
21572574.109 4545763.770 513.452
21572531.094 4545744.113 514.730
21572450.172 4545564.629 188.922
21572488.094 4545724.457 516.007
21572445.078 4545704.801 517.285
21572402.063 4545685.145 518.563
21572359.047 4545665.492 519.842
21572385.641 4545535.148 190.840
21572316.031 4545645.836 521.120
21572273.016 4545626.180 522.398
21572321.125 4545505.664 192.756
21572315.438 4545346.258 -137.434
21572230.016 4545606.523 523.675
21572187.000 4545586.867 524.953
21572143.984 4545567.211 526.231
21572200.141 4545439.641 194.740
21572100.969 4545547.555 527.509
21572068.688 4545518.496 526.320
21572036.391 4545489.434 525.131
21572151.688 4545396.051 192.958
21572004.094 4545460.375 523.944
21571971.813 4545431.316 522.754
21571939.531 4545402.254 521.564
21571888.656 4545186.980 190.550
21571907.234 4545373.195 520.733
21571865.797 4545349.719 522.349
21571795.438 4545134.156 194.183
21571849.375 4544989.027 -138.826
21571824.375 4545326.238 523.962
21571782.938 4545302.762 525.577
21571733.297 4545098.938 196.605
21571741.516 4545279.285 527.191
21571700.078 4545255.805 528.806
21571640.094 4545046.113 200.237
21571621.375 4544863.164 -129.623
21571658.656 4545232.328 530.420
21571617.219 4545208.848 532.035
21571575.797 4545185.371 533.649
21571577.938 4545010.895 202.659
21571534.359 4545161.895 535.265
21571492.938 4545138.414 536.878
21571451.500 4545114.938 538.494
21571361.109 4544926.695 205.565
21571409.781 4545097.992 540.753
21571368.063 4545081.047 542.932
21571232.547 4544881.500 212.489
21571270.719 4544738.453 -127.550
21571326.344 4545064.098 544.901
21571284.625 4545047.152 546.869
21571238.359 4545037.730 549.986
21571128.422 4544860.305 216.275
21571192.078 4545028.313 553.104
21571145.813 4545018.891 555.606
21571099.531 4545009.469 555.033
21571053.266 4545000.047 554.460
21570944.063 4544842.582 215.415
21571006.984 4544990.629 553.887
21570960.719 4544981.207 553.314
21570839.953 4544821.383 214.126
21570811.734 4544680.398 -123.916
21570914.438 4544971.785 552.741
21570868.172 4544962.363 552.168
21570805.250 4544814.320 213.697
21570821.891 4544952.945 551.596
21570775.625 4544943.523 551.023
21570730.141 4544951.531 552.116
21570702.313 4544819.262 214.907
21570684.656 4544959.535 553.209
21570639.172 4544967.543 554.205
21570593.703 4544975.551 553.915
21570467.078 4544866.016 215.219
21570324.250 4544767.375 -123.108
21570548.219 4544983.559 553.625
21570502.734 4544991.563 553.335
21570457.250 4544999.570 553.045
21570350.203 4544910.707 215.891
21570424.813 4545021.359 553.783
21570392.375 4545043.148 554.521
21570239.641 4544988.113 216.444
21570359.922 4545064.934 555.258
21570327.484 4545086.723 555.996
21570192.281 4545029.148 218.063
21570072.438 4544955.109 -120.581
21570296.781 4545119.645 557.417
21570266.078 4545152.570 558.838
21570235.375 4545185.492 560.258
21570039.766 4545269.813 222.562
21570204.672 4545218.414 561.679
21570184.422 4545253.742 563.416
21570164.156 4545289.070 565.153
21570024.563 4545296.309 223.864
21569849.094 4545397.703 -112.493
21570143.906 4545324.398 566.889
21570123.656 4545359.727 568.626
21570113.219 4545398.945 570.756
21569962.891 4545466.957 232.858
21570102.781 4545438.164 572.885
21570092.359 4545477.383 575.015
21570081.922 4545516.602 577.144
21569961.375 4545504.363 235.030
21570079.906 4545566.477 580.040
21570077.891 4545616.352 582.937
21569952.688 4545649.535 237.202
21569827.484 4545682.719 -108.532
21570075.875 4545666.223 585.833
21570073.859 4545716.098 588.729
21570071.844 4545765.973 591.625
21569948.156 4545761.750 243.719
21570069.828 4545815.844 594.521
21569945.125 4545836.563 250.162
21569840.438 4546039.918 -93.766
21570067.813 4545865.719 600.216
21570065.797 4545915.594 607.479
21570046.344 4545957.168 612.468
21569943.391 4545998.543 259.351
21570026.906 4545998.738 617.458
21570007.453 4546040.313 622.447
21569907.313 4546146.590 279.106
21569845.594 4546283.484 -77.405
21569988.016 4546081.883 627.437
21569968.563 4546123.457 632.427
21569998.234 4546154.563 638.809
21570027.906 4546185.668 645.190
21569959.000 4546257.906 288.679
21570057.578 4546216.773 651.572
21570087.266 4546247.875 657.954
21570116.938 4546278.980 664.336
21570025.781 4546327.891 303.039
21569875.281 4546314.586 -71.023
21570146.609 4546310.086 670.718
21570161.875 4546355.922 678.418
21570177.141 4546401.758 686.118
21570117.594 4546517.234 319.163
21570192.406 4546447.594 692.217
21570207.656 4546493.430 696.592
21570151.938 4546620.367 329.008
21570065.688 4546655.625 -47.328
21570222.922 4546539.270 700.968
21570238.188 4546585.105 705.345
21570253.453 4546630.941 709.721
21570268.719 4546676.777 714.097
21570251.453 4546773.906 339.778
21570308.609 4546703.613 719.703
21570348.484 4546730.449 725.308
21570371.094 4546854.414 356.594
21570234.188 4546871.031 -34.543
21570388.375 4546757.285 730.914
21570428.250 4546784.121 736.519
21570468.141 4546810.961 742.125
21570508.016 4546837.797 747.730
21570430.922 4546894.672 365.002
21570547.906 4546864.633 753.336
21570587.781 4546891.469 758.940
21570627.672 4546918.305 762.107
21570555.266 4547056.078 370.232
21570387.844 4547116.262 -20.963
21570658.531 4546952.500 761.769
21570689.406 4546986.691 761.432
21570701.547 4547033.266 760.870
21570713.688 4547079.844 760.309
21570564.375 4547091.008 369.811
21570725.828 4547126.418 759.748
21570715.797 4547166.859 759.190
21570705.750 4547207.301 758.633
21570534.266 4547212.332 368.138
21570695.719 4547247.742 758.075
21570685.688 4547288.184 757.517
21570661.250 4547324.195 756.968
21570479.297 4547293.352 366.902
21570636.828 4547360.203 756.419
21570612.406 4547396.211 755.870
21570460.969 4547320.363 366.490
21570264.281 4547305.535 -22.614
21570587.969 4547432.223 755.321
21570563.531 4547468.234 754.771
21570539.109 4547504.242 754.222
21570339.953 4547436.621 365.183
21570502.016 4547519.395 753.900
21570464.922 4547534.551 753.577
21570427.844 4547549.703 753.255
21570284.313 4547459.352 364.699
21570088.719 4547372.410 -24.078
21570390.750 4547564.859 752.932
21570353.656 4547580.012 752.610
21570221.188 4547476.211 364.266
21570306.578 4547587.336 752.355
21570259.484 4547594.660 752.099
21570212.406 4547601.984 751.844
21570079.938 4547498.180 363.500
21570165.313 4547609.305 751.589
21570118.234 4547616.629 751.334
21570071.156 4547623.953 751.079
21570024.063 4547631.277 749.909
21569938.672 4547520.152 356.311
21569976.984 4547638.602 745.738
21569929.891 4547645.926 741.748
21569707.625 4547563.676 352.838
21569947.469 4547394.383 -29.126
21569882.813 4547653.250 740.591
21569835.734 4547660.574 739.433
21569788.641 4547667.895 738.275
21569741.563 4547675.219 737.118
21569637.000 4547574.664 347.184
21569694.469 4547682.543 734.483
21569647.391 4547689.867 729.579
21569606.344 4547582.914 343.488
21569585.719 4547470.461 -40.138
21569606.516 4547700.867 724.651
21569565.641 4547711.871 719.723
21569545.031 4547599.414 336.097
21569524.766 4547722.871 714.796
21569483.875 4547733.871 709.867
21569341.688 4547649.313 325.008
21569301.688 4547537.250 -47.531
21569443.000 4547744.875 704.939
21569402.125 4547755.875 700.011
21569366.234 4547789.520 692.228
21569260.938 4547725.016 307.495
21569330.344 4547823.164 684.444
21569294.453 4547856.809 676.660
21569248.484 4547821.191 292.615
21569263.313 4547559.574 -53.886
21569278.844 4547901.945 668.879
21569263.219 4547947.082 661.096
21569277.844 4547985.047 656.820
21569079.656 4547990.023 292.615
21569259.453 4548176.551 289.408
21568888.641 4547836.945 -71.590
21569292.469 4548023.012 652.543
21569307.094 4548060.977 648.267
21569281.391 4548233.500 282.993
21569330.484 4548442.336 -81.442
21569321.719 4548098.941 643.991
21569353.141 4548131.777 641.828
21569352.094 4548307.383 278.126
[...]
POINT_DATA 1470
COLOR_SCALARS GocadColor 4
0.313725 0.623529 0.411765 1
0.313725 0.623529 0.411765 1
0.313725 0.623529 0.411765 1
0.313725 0.623529 0.411765 1
0.313725 0.623529 0.411765 1
0.313725 0.623529 0.411765 1
0.313725 0.623529 0.411765 1
0.313725 0.623529 0.411765 1
0.313725 0.623529 0.411765 1
0.313725 0.623529 0.411765 1
0.313725 0.623529 0.411765 1
0.313725 0.623529 0.411765 1
0.313725 0.623529 0.411765 1
0.313725 0.623529 0.411765 1
0.313725 0.623529 0.411765 1
0.313725 0.623529 0.411765 1
0.313725 0.623529 0.411765 1
0.313725 0.623529 0.411765 1
0.313725 0.623529 0.411765 1
0.313725 0.623529 0.411765 1
0.313725 0.623529 0.411765 1
0.313725 0.623529 0.411765 1
0.313725 0.623529 0.411765 1
0.313725 0.623529 0.411765 1
0.313725 0.623529 0.411765 1
0.313725 0.623529 0.411765 1
0.313725 0.623529 0.411765 1
0.313725 0.623529 0.411765 1
0.313725 0.623529 0.411765 1
0.313725 0.623529 0.411765 1
0.313725 0.623529 0.411765 1
0.313725 0.623529 0.411765 1
0.313725 0.623529 0.411765 1
0.313725 0.623529 0.411765 1
0.313725 0.623529 0.411765 1
0.313725 0.623529 0.411765 1
0.313725 0.623529 0.411765 1
0.313725 0.623529 0.411765 1
0.313725 0.623529 0.411765 1
0.313725 0.623529 0.411765 1
0.313725 0.623529 0.411765 1
0.313725 0.623529 0.411765 1
0.313725 0.623529 0.411765 1
0.313725 0.623529 0.411765 1
0.313725 0.623529 0.411765 1
0.313725 0.623529 0.411765 1
0.313725 0.623529 0.411765 1
0.313725 0.623529 0.411765 1
0.313725 0.623529 0.411765 1
0.313725 0.623529 0.411765 1
0.313725 0.623529 0.411765 1
0.313725 0.623529 0.411765 1
0.313725 0.623529 0.411765 1
0.313725 0.623529 0.411765 1
0.313725 0.623529 0.411765 1
0.313725 0.623529 0.411765 1
0.313725 0.623529 0.411765 1
0.313725 0.623529 0.411765 1
0.313725 0.623529 0.411765 1
0.313725 0.623529 0.411765 1
0.313725 0.623529 0.411765 1
0.313725 0.623529 0.411765 1
0.313725 0.623529 0.411765 1
0.313725 0.623529 0.411765 1
0.313725 0.623529 0.411765 1
0.313725 0.623529 0.411765 1
0.313725 0.623529 0.411765 1
0.313725 0.623529 0.411765 1
0.313725 0.623529 0.411765 1
0.313725 0.623529 0.411765 1
0.313725 0.623529 0.411765 1
0.313725 0.623529 0.411765 1
0.313725 0.623529 0.411765 1
0.313725 0.623529 0.411765 1
0.313725 0.623529 0.411765 1
0.313725 0.623529 0.411765 1
0.313725 0.623529 0.411765 1
0.313725 0.623529 0.411765 1
0.313725 0.623529 0.411765 1
0.313725 0.623529 0.411765 1
0.313725 0.623529 0.411765 1
0.313725 0.623529 0.411765 1
0.313725 0.623529 0.411765 1
0.313725 0.623529 0.411765 1
0.313725 0.623529 0.411765 1
0.313725 0.623529 0.411765 1
0.313725 0.623529 0.411765 1
0.313725 0.623529 0.411765 1
0.313725 0.623529 0.411765 1
0.313725 0.623529 0.411765 1
0.313725 0.623529 0.411765 1
0.313725 0.623529 0.411765 1
0.313725 0.623529 0.411765 1
0.313725 0.623529 0.411765 1
0.313725 0.623529 0.411765 1
0.313725 0.623529 0.411765 1
0.313725 0.623529 0.411765 1
0.313725 0.623529 0.411765 1
0.313725 0.623529 0.411765 1
0.313725 0.623529 0.411765 1
0.313725 0.623529 0.411765 1
0.313725 0.623529 0.411765 1
0.313725 0.623529 0.411765 1
0.313725 0.623529 0.411765 1
0.313725 0.623529 0.411765 1
0.313725 0.623529 0.411765 1
0.313725 0.623529 0.411765 1
0.313725 0.623529 0.411765 1
0.313725 0.623529 0.411765 1
0.313725 0.623529 0.411765 1
0.313725 0.623529 0.411765 1
0.313725 0.623529 0.411765 1
0.313725 0.623529 0.411765 1
0.313725 0.623529 0.411765 1
0.313725 0.623529 0.411765 1
0.313725 0.623529 0.411765 1
0.313725 0.623529 0.411765 1
0.313725 0.623529 0.411765 1
0.313725 0.623529 0.411765 1
0.313725 0.623529 0.411765 1
0.313725 0.623529 0.411765 1
0.313725 0.623529 0.411765 1
0.313725 0.623529 0.411765 1
0.313725 0.623529 0.411765 1
0.313725 0.623529 0.411765 1
0.313725 0.623529 0.411765 1
0.313725 0.623529 0.411765 1
0.313725 0.623529 0.411765 1
0.313725 0.623529 0.411765 1
0.313725 0.623529 0.411765 1
0.313725 0.623529 0.411765 1
0.313725 0.623529 0.411765 1
0.313725 0.623529 0.411765 1
0.313725 0.623529 0.411765 1
0.313725 0.623529 0.411765 1
0.313725 0.623529 0.411765 1
0.313725 0.623529 0.411765 1
0.313725 0.623529 0.411765 1
0.313725 0.623529 0.411765 1
0.313725 0.623529 0.411765 1
0.313725 0.623529 0.411765 1
0.313725 0.623529 0.411765 1
0.313725 0.623529 0.411765 1
0.313725 0.623529 0.411765 1
0.313725 0.623529 0.411765 1
0.313725 0.623529 0.411765 1
0.313725 0.623529 0.411765 1
0.313725 0.623529 0.411765 1
0.313725 0.623529 0.411765 1
0.313725 0.623529 0.411765 1
0.313725 0.623529 0.411765 1
0.313725 0.623529 0.411765 1
0.313725 0.623529 0.411765 1
0.313725 0.623529 0.411765 1
0.313725 0.623529 0.411765 1
0.313725 0.623529 0.411765 1
0.313725 0.623529 0.411765 1
0.313725 0.623529 0.411765 1
0.313725 0.623529 0.411765 1
0.313725 0.623529 0.411765 1
0.313725 0.623529 0.411765 1
0.313725 0.623529 0.411765 1
0.313725 0.623529 0.411765 1
0.313725 0.623529 0.411765 1
0.313725 0.623529 0.411765 1
0.313725 0.623529 0.411765 1
0.313725 0.623529 0.411765 1
0.313725 0.623529 0.411765 1
0.313725 0.623529 0.411765 1
0.313725 0.623529 0.411765 1
0.313725 0.623529 0.411765 1
0.313725 0.623529 0.411765 1
0.313725 0.623529 0.411765 1
0.313725 0.623529 0.411765 1
0.313725 0.623529 0.411765 1
0.313725 0.623529 0.411765 1
0.313725 0.623529 0.411765 1
0.313725 0.623529 0.411765 1
0.313725 0.623529 0.411765 1
0.313725 0.623529 0.411765 1
0.313725 0.623529 0.411765 1
0.313725 0.623529 0.411765 1
0.313725 0.623529 0.411765 1
0.313725 0.623529 0.411765 1
0.313725 0.623529 0.411765 1
0.313725 0.623529 0.411765 1
0.313725 0.623529 0.411765 1
0.313725 0.623529 0.411765 1
0.313725 0.623529 0.411765 1
0.313725 0.623529 0.411765 1
0.313725 0.623529 0.411765 1
0.313725 0.623529 0.411765 1
0.313725 0.623529 0.411765 1
0.313725 0.623529 0.411765 1
0.313725 0.623529 0.411765 1
0.313725 0.623529 0.411765 1
0.313725 0.623529 0.411765 1
0.313725 0.623529 0.411765 1
0.313725 0.623529 0.411765 1
0.313725 0.623529 0.411765 1
0.313725 0.623529 0.411765 1
0.313725 0.623529 0.411765 1
0.313725 0.623529 0.411765 1
0.313725 0.623529 0.411765 1
0.313725 0.623529 0.411765 1
0.313725 0.623529 0.411765 1
0.313725 0.623529 0.411765 1
0.313725 0.623529 0.411765 1
0.313725 0.623529 0.411765 1
0.313725 0.623529 0.411765 1
0.313725 0.623529 0.411765 1
0.313725 0.623529 0.411765 1
0.313725 0.623529 0.411765 1
0.313725 0.623529 0.411765 1
0.313725 0.623529 0.411765 1
0.313725 0.623529 0.411765 1
0.313725 0.623529 0.411765 1
0.313725 0.623529 0.411765 1
0.313725 0.623529 0.411765 1
0.313725 0.623529 0.411765 1
0.313725 0.623529 0.411765 1
0.313725 0.623529 0.411765 1
0.313725 0.623529 0.411765 1
0.313725 0.623529 0.411765 1
0.313725 0.623529 0.411765 1
0.313725 0.623529 0.411765 1
0.313725 0.623529 0.411765 1
0.313725 0.623529 0.411765 1
0.313725 0.623529 0.411765 1
0.313725 0.623529 0.411765 1
0.313725 0.623529 0.411765 1
0.313725 0.623529 0.411765 1
0.313725 0.623529 0.411765 1
0.313725 0.623529 0.411765 1
0.313725 0.623529 0.411765 1
0.313725 0.623529 0.411765 1
0.313725 0.623529 0.411765 1
0.313725 0.623529 0.411765 1
0.313725 0.623529 0.411765 1
0.313725 0.623529 0.411765 1
0.313725 0.623529 0.411765 1
0.313725 0.623529 0.411765 1
0.313725 0.623529 0.411765 1
0.313725 0.623529 0.411765 1
0.313725 0.623529 0.411765 1
0.313725 0.623529 0.411765 1
0.313725 0.623529 0.411765 1
0.313725 0.623529 0.411765 1
0.313725 0.623529 0.411765 1
0.313725 0.623529 0.411765 1
0.313725 0.623529 0.411765 1
0.313725 0.623529 0.411765 1
0.313725 0.623529 0.411765 1
0.313725 0.623529 0.411765 1
0.313725 0.623529 0.411765 1
0.313725 0.623529 0.411765 1
0.313725 0.623529 0.411765 1
0.313725 0.623529 0.411765 1
0.313725 0.623529 0.411765 1
0.313725 0.623529 0.411765 1
0.313725 0.623529 0.411765 1
0.313725 0.623529 0.411765 1
0.313725 0.623529 0.411765 1
0.313725 0.623529 0.411765 1
0.313725 0.623529 0.411765 1
0.313725 0.623529 0.411765 1
0.313725 0.623529 0.411765 1
0.313725 0.623529 0.411765 1
0.313725 0.623529 0.411765 1
0.313725 0.623529 0.411765 1
0.313725 0.623529 0.411765 1
0.313725 0.623529 0.411765 1
0.313725 0.623529 0.411765 1
0.313725 0.623529 0.411765 1
0.313725 0.623529 0.411765 1
0.313725 0.623529 0.411765 1
0.313725 0.623529 0.411765 1
0.313725 0.623529 0.411765 1
0.313725 0.623529 0.411765 1
0.313725 0.623529 0.411765 1
0.313725 0.623529 0.411765 1
0.313725 0.623529 0.411765 1
0.313725 0.623529 0.411765 1
0.313725 0.623529 0.411765 1
0.313725 0.623529 0.411765 1
0.313725 0.623529 0.411765 1
0.313725 0.623529 0.411765 1
0.313725 0.623529 0.411765 1
0.313725 0.623529 0.411765 1
0.313725 0.623529 0.411765 1
0.313725 0.623529 0.411765 1
0.313725 0.623529 0.411765 1
0.313725 0.623529 0.411765 1
0.313725 0.623529 0.411765 1
0.313725 0.623529 0.411765 1
0.313725 0.623529 0.411765 1
0.313725 0.623529 0.411765 1
0.313725 0.623529 0.411765 1
0.313725 0.623529 0.411765 1
0.313725 0.623529 0.411765 1
0.313725 0.623529 0.411765 1
0.313725 0.623529 0.411765 1
0.313725 0.623529 0.411765 1
0.313725 0.623529 0.411765 1
0.313725 0.623529 0.411765 1
0.313725 0.623529 0.411765 1
0.313725 0.623529 0.411765 1
0.313725 0.623529 0.411765 1
0.313725 0.623529 0.411765 1
0.313725 0.623529 0.411765 1
0.313725 0.623529 0.411765 1
0.313725 0.623529 0.411765 1
0.313725 0.623529 0.411765 1
0.313725 0.623529 0.411765 1
0.313725 0.623529 0.411765 1
0.313725 0.623529 0.411765 1
0.313725 0.623529 0.411765 1
0.313725 0.623529 0.411765 1
0.313725 0.623529 0.411765 1
0.313725 0.623529 0.411765 1
0.313725 0.623529 0.411765 1
0.313725 0.623529 0.411765 1
0.313725 0.623529 0.411765 1
0.313725 0.623529 0.411765 1
0.313725 0.623529 0.411765 1
0.313725 0.623529 0.411765 1
0.313725 0.623529 0.411765 1
0.313725 0.623529 0.411765 1
0.313725 0.623529 0.411765 1
0.313725 0.623529 0.411765 1
0.313725 0.623529 0.411765 1
0.313725 0.623529 0.411765 1
0.313725 0.623529 0.411765 1
0.313725 0.623529 0.411765 1
0.313725 0.623529 0.411765 1
0.313725 0.623529 0.411765 1
0.313725 0.623529 0.411765 1
0.313725 0.623529 0.411765 1
0.313725 0.623529 0.411765 1
0.313725 0.623529 0.411765 1
0.313725 0.623529 0.411765 1
0.313725 0.623529 0.411765 1
0.313725 0.623529 0.411765 1
0.313725 0.623529 0.411765 1
0.313725 0.623529 0.411765 1
0.313725 0.623529 0.411765 1
0.313725 0.623529 0.411765 1
0.313725 0.623529 0.411765 1
0.313725 0.623529 0.411765 1
0.313725 0.623529 0.411765 1
0.313725 0.623529 0.411765 1
0.313725 0.623529 0.411765 1
0.313725 0.623529 0.411765 1
0.313725 0.623529 0.411765 1
0.313725 0.623529 0.411765 1
0.313725 0.623529 0.411765 1
0.313725 0.623529 0.411765 1
0.313725 0.623529 0.411765 1
0.313725 0.623529 0.411765 1
0.313725 0.623529 0.411765 1
0.313725 0.623529 0.411765 1
0.313725 0.623529 0.411765 1
0.313725 0.623529 0.411765 1
0.313725 0.623529 0.411765 1
0.313725 0.623529 0.411765 1
0.313725 0.623529 0.411765 1
0.313725 0.623529 0.411765 1
0.313725 0.623529 0.411765 1
0.313725 0.623529 0.411765 1
0.313725 0.623529 0.411765 1
0.313725 0.623529 0.411765 1
0.313725 0.623529 0.411765 1
0.313725 0.623529 0.411765 1
0.313725 0.623529 0.411765 1
0.313725 0.623529 0.411765 1
0.313725 0.623529 0.411765 1
0.313725 0.623529 0.411765 1
0.313725 0.623529 0.411765 1
0.313725 0.623529 0.411765 1
0.313725 0.623529 0.411765 1
0.313725 0.623529 0.411765 1
0.313725 0.623529 0.411765 1
0.313725 0.623529 0.411765 1
0.313725 0.623529 0.411765 1
0.313725 0.623529 0.411765 1
0.313725 0.623529 0.411765 1
0.313725 0.623529 0.411765 1
0.313725 0.623529 0.411765 1
0.313725 0.623529 0.411765 1
0.313725 0.623529 0.411765 1
0.313725 0.623529 0.411765 1
0.313725 0.623529 0.411765 1
0.313725 0.623529 0.411765 1
0.313725 0.623529 0.411765 1
0.313725 0.623529 0.411765 1
0.313725 0.623529 0.411765 1
0.313725 0.623529 0.411765 1
0.313725 0.623529 0.411765 1
0.313725 0.623529 0.411765 1
0.313725 0.623529 0.411765 1
0.313725 0.623529 0.411765 1
0.313725 0.623529 0.411765 1
0.313725 0.623529 0.411765 1
0.313725 0.623529 0.411765 1
0.313725 0.623529 0.411765 1
0.313725 0.623529 0.411765 1
0.313725 0.623529 0.411765 1
0.313725 0.623529 0.411765 1
0.313725 0.623529 0.411765 1
0.313725 0.623529 0.411765 1
0.313725 0.623529 0.411765 1
0.313725 0.623529 0.411765 1
0.313725 0.623529 0.411765 1
0.313725 0.623529 0.411765 1
0.313725 0.623529 0.411765 1
0.313725 0.623529 0.411765 1
0.313725 0.623529 0.411765 1
0.313725 0.623529 0.411765 1
0.313725 0.623529 0.411765 1
0.313725 0.623529 0.411765 1
0.313725 0.623529 0.411765 1
0.313725 0.623529 0.411765 1
0.313725 0.623529 0.411765 1
0.313725 0.623529 0.411765 1
0.313725 0.623529 0.411765 1
0.313725 0.623529 0.411765 1
0.313725 0.623529 0.411765 1
0.313725 0.623529 0.411765 1
0.313725 0.623529 0.411765 1
0.313725 0.623529 0.411765 1
0.313725 0.623529 0.411765 1
0.313725 0.623529 0.411765 1
0.313725 0.623529 0.411765 1
0.313725 0.623529 0.411765 1
0.313725 0.623529 0.411765 1
0.313725 0.623529 0.411765 1
0.313725 0.623529 0.411765 1
0.313725 0.623529 0.411765 1
0.313725 0.623529 0.411765 1
0.313725 0.623529 0.411765 1
0.313725 0.623529 0.411765 1
0.313725 0.623529 0.411765 1
0.313725 0.623529 0.411765 1
0.313725 0.623529 0.411765 1
0.313725 0.623529 0.411765 1
0.313725 0.623529 0.411765 1
0.313725 0.623529 0.411765 1
0.313725 0.623529 0.411765 1
0.313725 0.623529 0.411765 1
0.313725 0.623529 0.411765 1
0.313725 0.623529 0.411765 1
0.313725 0.623529 0.411765 1
0.313725 0.623529 0.411765 1
0.313725 0.623529 0.411765 1
0.313725 0.623529 0.411765 1
0.313725 0.623529 0.411765 1
0.313725 0.623529 0.411765 1
0.313725 0.623529 0.411765 1
0.313725 0.623529 0.411765 1
0.313725 0.623529 0.411765 1
0.313725 0.623529 0.411765 1
0.313725 0.623529 0.411765 1
0.313725 0.623529 0.411765 1
0.313725 0.623529 0.411765 1
0.313725 0.623529 0.411765 1
0.313725 0.623529 0.411765 1
0.313725 0.623529 0.411765 1
0.313725 0.623529 0.411765 1
0.313725 0.623529 0.411765 1
0.313725 0.623529 0.411765 1
0.313725 0.623529 0.411765 1
0.313725 0.623529 0.411765 1
0.313725 0.623529 0.411765 1
0.313725 0.623529 0.411765 1
0.313725 0.623529 0.411765 1
0.313725 0.623529 0.411765 1
0.313725 0.623529 0.411765 1
0.313725 0.623529 0.411765 1
0.313725 0.623529 0.411765 1
0.313725 0.623529 0.411765 1
0.313725 0.623529 0.411765 1
0.313725 0.623529 0.411765 1
0.313725 0.623529 0.411765 1
0.313725 0.623529 0.411765 1
0.313725 0.623529 0.411765 1
0.313725 0.623529 0.411765 1
0.313725 0.623529 0.411765 1
0.313725 0.623529 0.411765 1
0.313725 0.623529 0.411765 1
0.313725 0.623529 0.411765 1
0.313725 0.623529 0.411765 1
0.313725 0.623529 0.411765 1
0.313725 0.623529 0.411765 1
0.313725 0.623529 0.411765 1
0.313725 0.623529 0.411765 1
0.313725 0.623529 0.411765 1
0.313725 0.623529 0.411765 1
0.313725 0.623529 0.411765 1
0.313725 0.623529 0.411765 1
0.313725 0.623529 0.411765 1
0.313725 0.623529 0.411765 1
0.313725 0.623529 0.411765 1
0.313725 0.623529 0.411765 1
0.313725 0.623529 0.411765 1
0.313725 0.623529 0.411765 1
0.313725 0.623529 0.411765 1
0.313725 0.623529 0.411765 1
0.313725 0.623529 0.411765 1
0.313725 0.623529 0.411765 1
0.313725 0.623529 0.411765 1
0.313725 0.623529 0.411765 1
0.313725 0.623529 0.411765 1
0.313725 0.623529 0.411765 1
0.313725 0.623529 0.411765 1
0.313725 0.623529 0.411765 1
0.313725 0.623529 0.411765 1
0.313725 0.623529 0.411765 1
0.313725 0.623529 0.411765 1
0.313725 0.623529 0.411765 1
0.313725 0.623529 0.411765 1
0.313725 0.623529 0.411765 1
0.313725 0.623529 0.411765 1
0.313725 0.623529 0.411765 1
0.313725 0.623529 0.411765 1
0.313725 0.623529 0.411765 1
0.313725 0.623529 0.411765 1
0.313725 0.623529 0.411765 1
0.313725 0.623529 0.411765 1
0.313725 0.623529 0.411765 1
0.313725 0.623529 0.411765 1
0.313725 0.623529 0.411765 1
0.313725 0.623529 0.411765 1
0.313725 0.623529 0.411765 1
0.313725 0.623529 0.411765 1
0.313725 0.623529 0.411765 1
0.313725 0.623529 0.411765 1
0.313725 0.623529 0.411765 1
0.313725 0.623529 0.411765 1
0.313725 0.623529 0.411765 1
0.313725 0.623529 0.411765 1
0.313725 0.623529 0.411765 1
0.313725 0.623529 0.411765 1
0.313725 0.623529 0.411765 1
0.313725 0.623529 0.411765 1
0.313725 0.623529 0.411765 1
0.313725 0.623529 0.411765 1
0.313725 0.623529 0.411765 1
0.313725 0.623529 0.411765 1
0.313725 0.623529 0.411765 1
0.313725 0.623529 0.411765 1
0.313725 0.623529 0.411765 1
0.313725 0.623529 0.411765 1
0.313725 0.623529 0.411765 1
0.313725 0.623529 0.411765 1
0.313725 0.623529 0.411765 1
0.313725 0.623529 0.411765 1
0.313725 0.623529 0.411765 1
0.313725 0.623529 0.411765 1
0.313725 0.623529 0.411765 1
0.313725 0.623529 0.411765 1
0.313725 0.623529 0.411765 1
0.313725 0.623529 0.411765 1
0.313725 0.623529 0.411765 1
0.313725 0.623529 0.411765 1
0.313725 0.623529 0.411765 1
0.313725 0.623529 0.411765 1
0.313725 0.623529 0.411765 1
0.313725 0.623529 0.411765 1
0.313725 0.623529 0.411765 1
0.313725 0.623529 0.411765 1
0.313725 0.623529 0.411765 1
0.313725 0.623529 0.411765 1
0.313725 0.623529 0.411765 1
0.313725 0.623529 0.411765 1
0.313725 0.623529 0.411765 1
0.313725 0.623529 0.411765 1
0.313725 0.623529 0.411765 1
0.313725 0.623529 0.411765 1
0.313725 0.623529 0.411765 1
0.313725 0.623529 0.411765 1
0.313725 0.623529 0.411765 1
0.313725 0.623529 0.411765 1
0.313725 0.623529 0.411765 1
0.313725 0.623529 0.411765 1
0.313725 0.623529 0.411765 1
0.313725 0.623529 0.411765 1
0.313725 0.623529 0.411765 1
0.313725 0.623529 0.411765 1
0.313725 0.623529 0.411765 1
0.313725 0.623529 0.411765 1
0.313725 0.623529 0.411765 1
0.313725 0.623529 0.411765 1
0.313725 0.623529 0.411765 1
0.313725 0.623529 0.411765 1
0.313725 0.623529 0.411765 1
0.313725 0.623529 0.411765 1
0.313725 0.623529 0.411765 1
0.313725 0.623529 0.411765 1
0.313725 0.623529 0.411765 1
0.313725 0.623529 0.411765 1
0.313725 0.623529 0.411765 1
0.313725 0.623529 0.411765 1
0.313725 0.623529 0.411765 1
0.313725 0.623529 0.411765 1
0.313725 0.623529 0.411765 1
0.313725 0.623529 0.411765 1
0.313725 0.623529 0.411765 1
0.313725 0.623529 0.411765 1
0.313725 0.623529 0.411765 1
0.313725 0.623529 0.411765 1
0.313725 0.623529 0.411765 1
0.313725 0.623529 0.411765 1
0.313725 0.623529 0.411765 1
0.313725 0.623529 0.411765 1
0.313725 0.623529 0.411765 1
0.313725 0.623529 0.411765 1
0.313725 0.623529 0.411765 1
0.313725 0.623529 0.411765 1
0.313725 0.623529 0.411765 1
0.313725 0.623529 0.411765 1
0.313725 0.623529 0.411765 1
0.313725 0.623529 0.411765 1
0.313725 0.623529 0.411765 1
0.313725 0.623529 0.411765 1
0.313725 0.623529 0.411765 1
0.313725 0.623529 0.411765 1
0.313725 0.623529 0.411765 1
0.313725 0.623529 0.411765 1
0.313725 0.623529 0.411765 1
0.313725 0.623529 0.411765 1
0.313725 0.623529 0.411765 1
0.313725 0.623529 0.411765 1
0.313725 0.623529 0.411765 1
0.313725 0.623529 0.411765 1
0.313725 0.623529 0.411765 1
0.313725 0.623529 0.411765 1
0.313725 0.623529 0.411765 1
0.313725 0.623529 0.411765 1
0.313725 0.623529 0.411765 1
0.313725 0.623529 0.411765 1
0.313725 0.623529 0.411765 1
0.313725 0.623529 0.411765 1
0.313725 0.623529 0.411765 1
0.313725 0.623529 0.411765 1
0.313725 0.623529 0.411765 1
0.313725 0.623529 0.411765 1
0.313725 0.623529 0.411765 1
0.313725 0.623529 0.411765 1
0.313725 0.623529 0.411765 1
0.313725 0.623529 0.411765 1
0.313725 0.623529 0.411765 1
0.313725 0.623529 0.411765 1
0.313725 0.623529 0.411765 1
0.313725 0.623529 0.411765 1
0.313725 0.623529 0.411765 1
0.313725 0.623529 0.411765 1
0.313725 0.623529 0.411765 1
0.313725 0.623529 0.411765 1
0.313725 0.623529 0.411765 1
0.313725 0.623529 0.411765 1
0.313725 0.623529 0.411765 1
0.313725 0.623529 0.411765 1
0.313725 0.623529 0.411765 1
0.313725 0.623529 0.411765 1
0.313725 0.623529 0.411765 1
0.313725 0.623529 0.411765 1
0.313725 0.623529 0.411765 1
0.313725 0.623529 0.411765 1
0.313725 0.623529 0.411765 1
0.313725 0.623529 0.411765 1
0.313725 0.623529 0.411765 1
0.313725 0.623529 0.411765 1
0.313725 0.623529 0.411765 1
0.313725 0.623529 0.411765 1
0.313725 0.623529 0.411765 1
0.313725 0.623529 0.411765 1
0.313725 0.623529 0.411765 1
0.313725 0.623529 0.411765 1
0.313725 0.623529 0.411765 1
0.313725 0.623529 0.411765 1
0.313725 0.623529 0.411765 1
0.313725 0.623529 0.411765 1
0.313725 0.623529 0.411765 1
0.313725 0.623529 0.411765 1
0.313725 0.623529 0.411765 1
0.313725 0.623529 0.411765 1
0.313725 0.623529 0.411765 1
0.313725 0.623529 0.411765 1