# vtk DataFile Version 3.0
Gocad TSurf to VTK
ASCII
DATASET POLYDATA
POINTS 901 float
21566462.531 4557017.137 -2000.000
21566036.922 4556810.414 -2000.000
21565960.922 4556859.055 -2375.000
21565428.906 4556351.359 -2375.000
21566419.969 4557059.699 -2375.000
21566176.766 4556831.695 -1650.000
21566495.969 4556986.734 -1650.000
21565769.391 4556570.246 -1650.000
21565781.563 4556457.766 -1300.000
21565684.266 4556567.207 -2000.000
21565617.391 4556339.199 -1650.000
21565526.188 4556324.000 -2000.000
21565337.703 4556035.191 -2375.000
21565441.063 4556092.953 -2000.000
21565611.313 4555576.141 -1650.000
21565392.422 4555597.422 -2375.000
21565514.031 4555509.262 -2000.000
21565270.813 4555685.586 -2750.000
21565337.703 4555387.656 -2750.000
21565234.344 4555977.430 -2750.000
21565149.219 4555773.750 -3125.000
21565270.813 4556244.961 -2750.000
21565206.984 4556378.723 -3125.000
21565483.625 4556621.930 -2750.000
21565346.828 4556591.527 -3125.000
21565708.594 4556786.094 -2750.000
21565339.609 4556601.145 -3167.366
21565219.094 4556426.207 -3184.767
21565503.953 4556723.973 -3137.853
21565599.344 4556796.828 -3125.000
21565720.219 4556890.813 -3108.824
21565884.922 4556907.695 -2750.000
21565728.344 4556896.098 -3107.668
21566164.594 4556998.898 -2750.000
21565744.422 4556901.047 -3105.003
21566212.109 4557069.043 -3029.114
21566377.406 4557102.258 -2750.000
21566270.109 4557095.691 -3020.098
21566687.500 4557163.063 -2750.000
21567040.141 4557217.781 -2375.000
21566380.328 4557116.277 -3000.921
21566744.094 4557199.773 -2938.688
21566997.594 4557248.184 -2750.000
21566913.250 4557242.992 -2910.047
21567629.922 4557242.105 -2750.000
21567589.359 4557247.738 -2796.332
21567885.281 4557163.063 -2000.000
21567852.953 4557206.262 -2750.000
21567082.703 4557187.383 -2000.000
21567739.359 4557135.703 -1650.000
21568481.141 4556992.816 -2000.000
21567192.156 4557120.500 -1300.000
21567593.438 4557108.340 -1300.000
21566529.406 4556956.336 -1300.000
21567447.516 4557080.977 -950.000
21565939.641 4556576.328 -950.000
21566575.844 4556800.043 -357.730
21565775.469 4556345.281 -950.000
21565854.516 4556190.234 -600.000
21565647.781 4556141.594 -1300.000
21565769.391 4556019.992 -950.000
21565684.281 4555849.750 -1300.000
21565860.594 4555618.703 -950.000
21565903.156 4555776.785 -600.000
21565818.031 4555460.617 -1300.000
21565997.406 4555418.055 -950.000
21566061.250 4555229.570 -1300.000
21566085.563 4555509.258 -600.000
21566462.531 4555351.176 -600.000
21566113.469 4555584.363 -354.662
21565953.531 4555831.066 -358.890
21566440.875 4555433.387 -351.023
21566399.250 4555518.488 -102.692
21566882.234 4555342.703 -345.363
21566785.250 4555404.539 -94.323
21566839.500 4555278.215 -600.000
21567344.344 4555353.219 -343.962
21566538.531 4555208.293 -950.000
21566821.266 4555153.570 -950.000
21566614.531 4555065.406 -1300.000
21566049.078 4555089.730 -1650.000
21567052.313 4555028.930 -1300.000
21566909.438 4554904.285 -1650.000
21567316.797 4555147.492 -950.000
21567338.078 4555278.215 -600.000
21567295.516 4555016.766 -1300.000
21567572.156 4555147.492 -950.000
21567359.359 4554886.043 -1650.000
21567721.125 4554968.125 -1300.000
21567252.953 4554755.320 -2000.000
21567763.688 4554658.039 -2000.000
21566535.500 4554764.441 -2375.000
21566806.063 4554682.359 -2375.000
21565988.281 4554892.125 -2375.000
21565632.594 4555111.008 -2375.000
21566304.453 4554749.242 -2750.000
21566845.594 4554585.078 -2750.000
21565787.641 4554931.645 -2750.000
21565951.000 4554818.680 -2964.377
21565532.281 4555077.570 -2750.000
21565468.438 4555384.617 -2375.000
21565434.703 4555106.809 -3072.484
21565731.453 4554942.105 -3000.000
21565394.922 4555128.738 -3082.192
21565250.938 4555325.617 -3123.136
21565249.906 4555327.109 -3123.435
21565732.922 4555144.449 -2000.000
21565775.484 4555302.531 -1650.000
21565249.609 4555328.242 -3123.552
21565246.109 4555342.133 -3125.000
21565150.500 4555720.391 -3164.412
21565134.266 4555784.590 -3171.102
21565136.172 4555799.336 -3171.418
21565143.047 4555852.859 -3172.602
21565188.797 4556381.844 -3189.124
21566195.594 4554742.078 -2926.686
21566504.922 4554658.977 -2879.469
21566853.625 4554565.297 -2826.243
21567028.313 4554562.965 -2801.039
21567088.781 4554572.914 -2750.000
21567064.188 4554562.633 -2795.289
21567170.875 4554664.117 -2375.000
21567342.188 4554524.648 -2750.000
21567553.922 4554591.156 -2375.000
21567344.359 4554524.336 -2749.647
21567524.922 4554498.949 -2720.217
21567344.016 4554524.383 -2749.702
21567755.891 4554466.484 -2682.575
21567796.563 4554460.766 -2675.946
21567781.922 4554548.594 -2375.000
21567947.406 4554414.414 -2650.850
21568177.141 4554512.113 -2000.000
21568092.016 4554439.152 -2375.000
21567818.406 4554785.723 -1650.000
21568277.469 4554618.516 -1650.000
21568189.297 4554791.801 -1300.000
21568541.938 4554451.313 -2000.000
21568681.781 4554588.117 -1650.000
21568535.859 4554366.191 -2375.000
21568246.516 4554361.898 -2601.888
21568706.188 4554411.613 -2234.930
21568746.391 4554446.797 -2093.466
21568681.453 4554389.953 -2322.009
21568666.391 4554376.773 -2375.000
21568630.859 4554345.684 -2500.000
21568628.281 4554343.426 -2509.082
21568623.641 4554339.367 -2525.397
21568619.125 4554336.875 -2541.713
21568437.438 4554337.617 -2570.823
21568771.219 4554468.531 -2006.076
21568772.953 4554470.043 -2000.000
21568827.531 4554540.965 -1814.499
21568875.922 4554603.855 -1650.000
21568896.219 4554630.234 -1581.008
21568906.141 4554643.129 -1547.279
21568821.625 4554724.922 -1300.000
21568560.188 4554694.516 -1300.000
21568920.047 4554661.207 -1500.000
21568925.016 4554667.660 -1483.123
21568978.891 4554737.672 -1300.000
21568989.922 4554752.004 -1262.512
21568961.484 4554861.723 -950.000
21568569.297 4554816.121 -950.000
21569015.953 4554785.836 -1174.016
21569040.656 4554834.664 -1094.780
21569054.109 4554869.004 -1034.788
21569054.859 4554870.918 -1031.440
21569062.281 4554879.785 -1000.000
21569070.250 4554887.211 -976.016
21569075.156 4554891.793 -961.227
21569078.891 4554895.270 -950.000
21569101.328 4554998.527 -600.000
21569131.422 4554954.344 -790.740
21569137.344 4554961.008 -772.780
21569170.813 4555009.316 -670.050
21569193.641 4555042.254 -600.000
21569194.266 4555043.102 -598.107
21569196.766 4555046.539 -590.446
21569281.875 4555163.367 -329.974
21569075.703 4555058.891 -306.915
21568578.422 4554937.723 -600.000
21569285.016 4555167.480 -320.365
21569290.094 4555174.117 -304.855
21569281.875 4555163.375 -329.956
21569291.906 4555176.352 -299.355
21569294.047 4555178.996 -292.845
21569184.219 4555184.770 -12.843
21568935.094 4555102.852 -20.156
21569299.563 4555193.031 -275.189
21569300.453 4555195.289 -272.346
21569329.063 4555267.980 -180.891
21569366.813 4555363.863 -60.268
21569378.469 4555393.465 -23.025
21569380.859 4555399.543 -15.376
21569221.875 4555287.949 287.990
21569193.938 4555271.754 286.176
21569381.453 4555400.563 -13.555
21569389.516 4555414.563 11.499
21569391.078 4555417.582 16.349
21569392.219 4555419.801 19.908
21569289.188 4555365.906 285.683
21569185.047 4555347.941 583.987
21569327.313 4555495.344 276.450
21569235.906 4555520.520 571.678
21569393.375 4555429.680 24.442
21569394.266 4555437.215 27.899
21569395.734 4555446.949 33.266
21569399.391 4555480.055 55.280
21569399.813 4555485.586 59.495
21569398.031 4555462.230 41.694
21569400.047 4555488.730 61.892
21569401.594 4555509.012 77.351
21569402.016 4555514.559 81.580
21569402.172 4555516.500 83.062
21569402.859 4555525.430 89.869
21569403.922 4555539.465 100.566
21569404.063 4555541.266 101.937
21569404.406 4555545.645 105.270
21569405.844 4555564.535 119.669
21569406.375 4555571.543 125.011
21569406.734 4555576.254 128.605
21569407.422 4555585.148 135.385
21569408.219 4555595.625 143.372
21569408.563 4555605.352 149.530
21569408.672 4555608.527 151.541
21569409.813 4555640.828 171.977
21569409.828 4555641.379 172.325
21569409.859 4555642.461 173.008
21569364.219 4555621.941 274.142
21569261.328 4555606.809 565.523
21569410.234 4555653.129 179.765
21569412.672 4555668.938 195.640
21569414.078 4555678.102 204.843
21569414.219 4555678.957 205.700
21569414.313 4555679.582 206.329
21569416.109 4555691.277 218.065
21569419.953 4555716.246 243.121
21569420.656 4555720.793 247.686
21569421.188 4555724.207 251.117
21569422.375 4555731.996 258.937
21569423.875 4555741.738 268.721
21569302.375 4555689.199 561.795
21569281.844 4555648.004 563.658
21569424.359 4555744.883 271.878
21569424.406 4555745.129 272.126
21569424.438 4555745.328 272.324
21569322.891 4555730.391 559.931
21569424.531 4555745.918 272.902
21569343.406 4555771.586 558.066
21569424.656 4555746.738 273.739
21569363.938 4555812.781 556.203
21569425.797 4555757.125 282.755
21569426.578 4555764.223 288.914
21569427.422 4555771.910 295.582
21569430.578 4555800.559 320.442
21569433.016 4555822.664 339.617
21569435.703 4555847.008 360.726
21569436.594 4555855.082 367.734
21569439.016 4555876.977 386.735
21569439.125 4555877.578 387.412
21569439.016 4555876.984 386.718
21569441.625 4555890.434 401.911
21569441.625 4555890.430 401.930
21569384.453 4555853.977 554.339
21569442.797 4555896.539 408.829
21569443.063 4555897.883 410.347
21569445.016 4555907.953 421.719
21569404.969 4555895.172 552.474
21569446.281 4555914.461 429.068
21569449.641 4555931.715 448.541
21569425.484 4555936.363 550.610
21569452.016 4555943.973 462.392
21569453.203 4555950.082 469.292
21569453.547 4555951.883 471.325
21569454.203 4555955.277 475.170
21569455.594 4555962.387 483.198
21569455.828 4555963.605 484.577
21569446.016 4555977.559 548.747
21569458.781 4555978.797 501.746
21569466.531 4556018.754 546.882
21569248.609 4555563.664 568.599
21569223.188 4555477.375 574.755
21569210.469 4555434.230 577.832
21569197.766 4555391.086 580.910
21569147.797 4555326.348 581.568
21569110.547 4555304.754 579.150
21569073.313 4555283.164 576.733
21569036.063 4555261.570 574.314
21568996.500 4555163.418 278.811
21568998.813 4555239.977 572.341
[...]
POINT_DATA 901
COLOR_SCALARS GocadColor 4
1 0.447059 0.337255 1
1 0.447059 0.337255 1
1 0.447059 0.337255 1
1 0.447059 0.337255 1
1 0.447059 0.337255 1
1 0.447059 0.337255 1
1 0.447059 0.337255 1
1 0.447059 0.337255 1
1 0.447059 0.337255 1
1 0.447059 0.337255 1
1 0.447059 0.337255 1
1 0.447059 0.337255 1
1 0.447059 0.337255 1
1 0.447059 0.337255 1
1 0.447059 0.337255 1
1 0.447059 0.337255 1
1 0.447059 0.337255 1
1 0.447059 0.337255 1
1 0.447059 0.337255 1
1 0.447059 0.337255 1
1 0.447059 0.337255 1
1 0.447059 0.337255 1
1 0.447059 0.337255 1
1 0.447059 0.337255 1
1 0.447059 0.337255 1
1 0.447059 0.337255 1
1 0.447059 0.337255 1
1 0.447059 0.337255 1
1 0.447059 0.337255 1
1 0.447059 0.337255 1
1 0.447059 0.337255 1
1 0.447059 0.337255 1
1 0.447059 0.337255 1
1 0.447059 0.337255 1
1 0.447059 0.337255 1
1 0.447059 0.337255 1
1 0.447059 0.337255 1
1 0.447059 0.337255 1
1 0.447059 0.337255 1
1 0.447059 0.337255 1
1 0.447059 0.337255 1
1 0.447059 0.337255 1
1 0.447059 0.337255 1
1 0.447059 0.337255 1
1 0.447059 0.337255 1
1 0.447059 0.337255 1
1 0.447059 0.337255 1
1 0.447059 0.337255 1
1 0.447059 0.337255 1
1 0.447059 0.337255 1
1 0.447059 0.337255 1
1 0.447059 0.337255 1
1 0.447059 0.337255 1
1 0.447059 0.337255 1
1 0.447059 0.337255 1
1 0.447059 0.337255 1
1 0.447059 0.337255 1
1 0.447059 0.337255 1
1 0.447059 0.337255 1
1 0.447059 0.337255 1
1 0.447059 0.337255 1
1 0.447059 0.337255 1
1 0.447059 0.337255 1
1 0.447059 0.337255 1
1 0.447059 0.337255 1
1 0.447059 0.337255 1
1 0.447059 0.337255 1
1 0.447059 0.337255 1
1 0.447059 0.337255 1
1 0.447059 0.337255 1
1 0.447059 0.337255 1
1 0.447059 0.337255 1
1 0.447059 0.337255 1
1 0.447059 0.337255 1
1 0.447059 0.337255 1
1 0.447059 0.337255 1
1 0.447059 0.337255 1
1 0.447059 0.337255 1
1 0.447059 0.337255 1
1 0.447059 0.337255 1
1 0.447059 0.337255 1
1 0.447059 0.337255 1
1 0.447059 0.337255 1
1 0.447059 0.337255 1
1 0.447059 0.337255 1
1 0.447059 0.337255 1
1 0.447059 0.337255 1
1 0.447059 0.337255 1
1 0.447059 0.337255 1
1 0.447059 0.337255 1
1 0.447059 0.337255 1
1 0.447059 0.337255 1
1 0.447059 0.337255 1
1 0.447059 0.337255 1
1 0.447059 0.337255 1
1 0.447059 0.337255 1
1 0.447059 0.337255 1
1 0.447059 0.337255 1
1 0.447059 0.337255 1
1 0.447059 0.337255 1
1 0.447059 0.337255 1
1 0.447059 0.337255 1
1 0.447059 0.337255 1
1 0.447059 0.337255 1
1 0.447059 0.337255 1
1 0.447059 0.337255 1
1 0.447059 0.337255 1
1 0.447059 0.337255 1
1 0.447059 0.337255 1
1 0.447059 0.337255 1
1 0.447059 0.337255 1
1 0.447059 0.337255 1
1 0.447059 0.337255 1
1 0.447059 0.337255 1
1 0.447059 0.337255 1
1 0.447059 0.337255 1
1 0.447059 0.337255 1
1 0.447059 0.337255 1
1 0.447059 0.337255 1
1 0.447059 0.337255 1
1 0.447059 0.337255 1
1 0.447059 0.337255 1
1 0.447059 0.337255 1
1 0.447059 0.337255 1
1 0.447059 0.337255 1
1 0.447059 0.337255 1
1 0.447059 0.337255 1
1 0.447059 0.337255 1
1 0.447059 0.337255 1
1 0.447059 0.337255 1
1 0.447059 0.337255 1
1 0.447059 0.337255 1
1 0.447059 0.337255 1
1 0.447059 0.337255 1
1 0.447059 0.337255 1
1 0.447059 0.337255 1
1 0.447059 0.337255 1
1 0.447059 0.337255 1
1 0.447059 0.337255 1
1 0.447059 0.337255 1
1 0.447059 0.337255 1
1 0.447059 0.337255 1
1 0.447059 0.337255 1
1 0.447059 0.337255 1
1 0.447059 0.337255 1
1 0.447059 0.337255 1
1 0.447059 0.337255 1
1 0.447059 0.337255 1
1 0.447059 0.337255 1
1 0.447059 0.337255 1
1 0.447059 0.337255 1
1 0.447059 0.337255 1
1 0.447059 0.337255 1
1 0.447059 0.337255 1
1 0.447059 0.337255 1
1 0.447059 0.337255 1
1 0.447059 0.337255 1
1 0.447059 0.337255 1
1 0.447059 0.337255 1
1 0.447059 0.337255 1
1 0.447059 0.337255 1
1 0.447059 0.337255 1
1 0.447059 0.337255 1
1 0.447059 0.337255 1
1 0.447059 0.337255 1
1 0.447059 0.337255 1
1 0.447059 0.337255 1
1 0.447059 0.337255 1
1 0.447059 0.337255 1
1 0.447059 0.337255 1
1 0.447059 0.337255 1
1 0.447059 0.337255 1
1 0.447059 0.337255 1
1 0.447059 0.337255 1
1 0.447059 0.337255 1
1 0.447059 0.337255 1
1 0.447059 0.337255 1
1 0.447059 0.337255 1
1 0.447059 0.337255 1
1 0.447059 0.337255 1
1 0.447059 0.337255 1
1 0.447059 0.337255 1
1 0.447059 0.337255 1
1 0.447059 0.337255 1
1 0.447059 0.337255 1
1 0.447059 0.337255 1
1 0.447059 0.337255 1
1 0.447059 0.337255 1
1 0.447059 0.337255 1
1 0.447059 0.337255 1
1 0.447059 0.337255 1
1 0.447059 0.337255 1
1 0.447059 0.337255 1
1 0.447059 0.337255 1
1 0.447059 0.337255 1
1 0.447059 0.337255 1
1 0.447059 0.337255 1
1 0.447059 0.337255 1
1 0.447059 0.337255 1
1 0.447059 0.337255 1
1 0.447059 0.337255 1
1 0.447059 0.337255 1
1 0.447059 0.337255 1
1 0.447059 0.337255 1
1 0.447059 0.337255 1
1 0.447059 0.337255 1
1 0.447059 0.337255 1
1 0.447059 0.337255 1
1 0.447059 0.337255 1
1 0.447059 0.337255 1
1 0.447059 0.337255 1
1 0.447059 0.337255 1
1 0.447059 0.337255 1
1 0.447059 0.337255 1
1 0.447059 0.337255 1
1 0.447059 0.337255 1
1 0.447059 0.337255 1
1 0.447059 0.337255 1
1 0.447059 0.337255 1
1 0.447059 0.337255 1
1 0.447059 0.337255 1
1 0.447059 0.337255 1
1 0.447059 0.337255 1
1 0.447059 0.337255 1
1 0.447059 0.337255 1
1 0.447059 0.337255 1
1 0.447059 0.337255 1
1 0.447059 0.337255 1
1 0.447059 0.337255 1
1 0.447059 0.337255 1
1 0.447059 0.337255 1
1 0.447059 0.337255 1
1 0.447059 0.337255 1
1 0.447059 0.337255 1
1 0.447059 0.337255 1
1 0.447059 0.337255 1
1 0.447059 0.337255 1
1 0.447059 0.337255 1
1 0.447059 0.337255 1
1 0.447059 0.337255 1
1 0.447059 0.337255 1
1 0.447059 0.337255 1
1 0.447059 0.337255 1
1 0.447059 0.337255 1
1 0.447059 0.337255 1
1 0.447059 0.337255 1
1 0.447059 0.337255 1
1 0.447059 0.337255 1
1 0.447059 0.337255 1
1 0.447059 0.337255 1
1 0.447059 0.337255 1
1 0.447059 0.337255 1
1 0.447059 0.337255 1
1 0.447059 0.337255 1
1 0.447059 0.337255 1
1 0.447059 0.337255 1
1 0.447059 0.337255 1
1 0.447059 0.337255 1
1 0.447059 0.337255 1
1 0.447059 0.337255 1
1 0.447059 0.337255 1
1 0.447059 0.337255 1
1 0.447059 0.337255 1
1 0.447059 0.337255 1
1 0.447059 0.337255 1
1 0.447059 0.337255 1
1 0.447059 0.337255 1
1 0.447059 0.337255 1
1 0.447059 0.337255 1
1 0.447059 0.337255 1
1 0.447059 0.337255 1
1 0.447059 0.337255 1
1 0.447059 0.337255 1
1 0.447059 0.337255 1
1 0.447059 0.337255 1
1 0.447059 0.337255 1
1 0.447059 0.337255 1
1 0.447059 0.337255 1
1 0.447059 0.337255 1
1 0.447059 0.337255 1
1 0.447059 0.337255 1
1 0.447059 0.337255 1
1 0.447059 0.337255 1
1 0.447059 0.337255 1
1 0.447059 0.337255 1
1 0.447059 0.337255 1
1 0.447059 0.337255 1
1 0.447059 0.337255 1
1 0.447059 0.337255 1
1 0.447059 0.337255 1
1 0.447059 0.337255 1
1 0.447059 0.337255 1
1 0.447059 0.337255 1
1 0.447059 0.337255 1
1 0.447059 0.337255 1
1 0.447059 0.337255 1
1 0.447059 0.337255 1
1 0.447059 0.337255 1
1 0.447059 0.337255 1
1 0.447059 0.337255 1
1 0.447059 0.337255 1
1 0.447059 0.337255 1
1 0.447059 0.337255 1
1 0.447059 0.337255 1
1 0.447059 0.337255 1
1 0.447059 0.337255 1
1 0.447059 0.337255 1
1 0.447059 0.337255 1
1 0.447059 0.337255 1
1 0.447059 0.337255 1
1 0.447059 0.337255 1
1 0.447059 0.337255 1
1 0.447059 0.337255 1
1 0.447059 0.337255 1
1 0.447059 0.337255 1
1 0.447059 0.337255 1
1 0.447059 0.337255 1
1 0.447059 0.337255 1
1 0.447059 0.337255 1
1 0.447059 0.337255 1
1 0.447059 0.337255 1
1 0.447059 0.337255 1
1 0.447059 0.337255 1
1 0.447059 0.337255 1
1 0.447059 0.337255 1
1 0.447059 0.337255 1
1 0.447059 0.337255 1
1 0.447059 0.337255 1
1 0.447059 0.337255 1
1 0.447059 0.337255 1
1 0.447059 0.337255 1
1 0.447059 0.337255 1
1 0.447059 0.337255 1
1 0.447059 0.337255 1
1 0.447059 0.337255 1
1 0.447059 0.337255 1
1 0.447059 0.337255 1
1 0.447059 0.337255 1
1 0.447059 0.337255 1
1 0.447059 0.337255 1
1 0.447059 0.337255 1
1 0.447059 0.337255 1
1 0.447059 0.337255 1
1 0.447059 0.337255 1
1 0.447059 0.337255 1
1 0.447059 0.337255 1
1 0.447059 0.337255 1
1 0.447059 0.337255 1
1 0.447059 0.337255 1
1 0.447059 0.337255 1
1 0.447059 0.337255 1
1 0.447059 0.337255 1
1 0.447059 0.337255 1
1 0.447059 0.337255 1
1 0.447059 0.337255 1
1 0.447059 0.337255 1
1 0.447059 0.337255 1
1 0.447059 0.337255 1
1 0.447059 0.337255 1
1 0.447059 0.337255 1
1 0.447059 0.337255 1
1 0.447059 0.337255 1
1 0.447059 0.337255 1
1 0.447059 0.337255 1
1 0.447059 0.337255 1
1 0.447059 0.337255 1
1 0.447059 0.337255 1
1 0.447059 0.337255 1
1 0.447059 0.337255 1
1 0.447059 0.337255 1
1 0.447059 0.337255 1
1 0.447059 0.337255 1
1 0.447059 0.337255 1
1 0.447059 0.337255 1
1 0.447059 0.337255 1
1 0.447059 0.337255 1
1 0.447059 0.337255 1
1 0.447059 0.337255 1
1 0.447059 0.337255 1
1 0.447059 0.337255 1
1 0.447059 0.337255 1
1 0.447059 0.337255 1
1 0.447059 0.337255 1
1 0.447059 0.337255 1
1 0.447059 0.337255 1
1 0.447059 0.337255 1
1 0.447059 0.337255 1
1 0.447059 0.337255 1
1 0.447059 0.337255 1
1 0.447059 0.337255 1
1 0.447059 0.337255 1
1 0.447059 0.337255 1
1 0.447059 0.337255 1
1 0.447059 0.337255 1
1 0.447059 0.337255 1
1 0.447059 0.337255 1
1 0.447059 0.337255 1
1 0.447059 0.337255 1
1 0.447059 0.337255 1
1 0.447059 0.337255 1
1 0.447059 0.337255 1
1 0.447059 0.337255 1
1 0.447059 0.337255 1
1 0.447059 0.337255 1
1 0.447059 0.337255 1
1 0.447059 0.337255 1
1 0.447059 0.337255 1
1 0.447059 0.337255 1
1 0.447059 0.337255 1
1 0.447059 0.337255 1
1 0.447059 0.337255 1
1 0.447059 0.337255 1
1 0.447059 0.337255 1
1 0.447059 0.337255 1
1 0.447059 0.337255 1
1 0.447059 0.337255 1
1 0.447059 0.337255 1
1 0.447059 0.337255 1
1 0.447059 0.337255 1
1 0.447059 0.337255 1
1 0.447059 0.337255 1
1 0.447059 0.337255 1
1 0.447059 0.337255 1
1 0.447059 0.337255 1
1 0.447059 0.337255 1
1 0.447059 0.337255 1
1 0.447059 0.337255 1
1 0.447059 0.337255 1
1 0.447059 0.337255 1
1 0.447059 0.337255 1
1 0.447059 0.337255 1
1 0.447059 0.337255 1
1 0.447059 0.337255 1
1 0.447059 0.337255 1
1 0.447059 0.337255 1
1 0.447059 0.337255 1
1 0.447059 0.337255 1
1 0.447059 0.337255 1
1 0.447059 0.337255 1
1 0.447059 0.337255 1
1 0.447059 0.337255 1
1 0.447059 0.337255 1
1 0.447059 0.337255 1
1 0.447059 0.337255 1
1 0.447059 0.337255 1
1 0.447059 0.337255 1
1 0.447059 0.337255 1
1 0.447059 0.337255 1
1 0.447059 0.337255 1
1 0.447059 0.337255 1
1 0.447059 0.337255 1
1 0.447059 0.337255 1
1 0.447059 0.337255 1
1 0.447059 0.337255 1
1 0.447059 0.337255 1
1 0.447059 0.337255 1
1 0.447059 0.337255 1
1 0.447059 0.337255 1
1 0.447059 0.337255 1
1 0.447059 0.337255 1
1 0.447059 0.337255 1
1 0.447059 0.337255 1
1 0.447059 0.337255 1
1 0.447059 0.337255 1
1 0.447059 0.337255 1
1 0.447059 0.337255 1
1 0.447059 0.337255 1
1 0.447059 0.337255 1
1 0.447059 0.337255 1
1 0.447059 0.337255 1
1 0.447059 0.337255 1
1 0.447059 0.337255 1
1 0.447059 0.337255 1
1 0.447059 0.337255 1
1 0.447059 0.337255 1
1 0.447059 0.337255 1
1 0.447059 0.337255 1
1 0.447059 0.337255 1
1 0.447059 0.337255 1
1 0.447059 0.337255 1
1 0.447059 0.337255 1
1 0.447059 0.337255 1
1 0.447059 0.337255 1
1 0.447059 0.337255 1
1 0.447059 0.337255 1
1 0.447059 0.337255 1
1 0.447059 0.337255 1
1 0.447059 0.337255 1
1 0.447059 0.337255 1
1 0.447059 0.337255 1
1 0.447059 0.337255 1
1 0.447059 0.337255 1
1 0.447059 0.337255 1
1 0.447059 0.337255 1
1 0.447059 0.337255 1
1 0.447059 0.337255 1
1 0.447059 0.337255 1
1 0.447059 0.337255 1
1 0.447059 0.337255 1
1 0.447059 0.337255 1
1 0.447059 0.337255 1
1 0.447059 0.337255 1
1 0.447059 0.337255 1
1 0.447059 0.337255 1
1 0.447059 0.337255 1
1 0.447059 0.337255 1
1 0.447059 0.337255 1
1 0.447059 0.337255 1
1 0.447059 0.337255 1
1 0.447059 0.337255 1
1 0.447059 0.337255 1
1 0.447059 0.337255 1
1 0.447059 0.337255 1
1 0.447059 0.337255 1
1 0.447059 0.337255 1
1 0.447059 0.337255 1
1 0.447059 0.337255 1
1 0.447059 0.337255 1
1 0.447059 0.337255 1
1 0.447059 0.337255 1
1 0.447059 0.337255 1
1 0.447059 0.337255 1
1 0.447059 0.337255 1
1 0.447059 0.337255 1
1 0.447059 0.337255 1
1 0.447059 0.337255 1
1 0.447059 0.337255 1
1 0.447059 0.337255 1
1 0.447059 0.337255 1
1 0.447059 0.337255 1
1 0.447059 0.337255 1
1 0.447059 0.337255 1
1 0.447059 0.337255 1
1 0.447059 0.337255 1
1 0.447059 0.337255 1
1 0.447059 0.337255 1
1 0.447059 0.337255 1
1 0.447059 0.337255 1
1 0.447059 0.337255 1
1 0.447059 0.337255 1
1 0.447059 0.337255 1
1 0.447059 0.337255 1
1 0.447059 0.337255 1
1 0.447059 0.337255 1
1 0.447059 0.337255 1
1 0.447059 0.337255 1
1 0.447059 0.337255 1
1 0.447059 0.337255 1
1 0.447059 0.337255 1
1 0.447059 0.337255 1
1 0.447059 0.337255 1
1 0.447059 0.337255 1
1 0.447059 0.337255 1
1 0.447059 0.337255 1
1 0.447059 0.337255 1
1 0.447059 0.337255 1
1 0.447059 0.337255 1
1 0.447059 0.337255 1
1 0.447059 0.337255 1
1 0.447059 0.337255 1
1 0.447059 0.337255 1
1 0.447059 0.337255 1
1 0.447059 0.337255 1
1 0.447059 0.337255 1
1 0.447059 0.337255 1
1 0.447059 0.337255 1
1 0.447059 0.337255 1
1 0.447059 0.337255 1
1 0.447059 0.337255 1
1 0.447059 0.337255 1
1 0.447059 0.337255 1
1 0.447059 0.337255 1
1 0.447059 0.337255 1
1 0.447059 0.337255 1
1 0.447059 0.337255 1
1 0.447059 0.337255 1
1 0.447059 0.337255 1
1 0.447059 0.337255 1
1 0.447059 0.337255 1
1 0.447059 0.337255 1
1 0.447059 0.337255 1
1 0.447059 0.337255 1
1 0.447059 0.337255 1
1 0.447059 0.337255 1
1 0.447059 0.337255 1
1 0.447059 0.337255 1
1 0.447059 0.337255 1
1 0.447059 0.337255 1
1 0.447059 0.337255 1
1 0.447059 0.337255 1
1 0.447059 0.337255 1
1 0.447059 0.337255 1
1 0.447059 0.337255 1
1 0.447059 0.337255 1
1 0.447059 0.337255 1
1 0.447059 0.337255 1
1 0.447059 0.337255 1
1 0.447059 0.337255 1
1 0.447059 0.337255 1
1 0.447059 0.337255 1
1 0.447059 0.337255 1
1 0.447059 0.337255 1
1 0.447059 0.337255 1
1 0.447059 0.337255 1
1 0.447059 0.337255 1
1 0.447059 0.337255 1
1 0.447059 0.337255 1
1 0.447059 0.337255 1
1 0.447059 0.337255 1
1 0.447059 0.337255 1
1 0.447059 0.337255 1
1 0.447059 0.337255 1
1 0.447059 0.337255 1
1 0.447059 0.337255 1
1 0.447059 0.337255 1
1 0.447059 0.337255 1
1 0.447059 0.337255 1
1 0.447059 0.337255 1
1 0.447059 0.337255 1
1 0.447059 0.337255 1
1 0.447059 0.337255 1
1 0.447059 0.337255 1
1 0.447059 0.337255 1
1 0.447059 0.337255 1
1 0.447059 0.337255 1
1 0.447059 0.337255 1
1 0.447059 0.337255 1
1 0.447059 0.337255 1
1 0.447059 0.337255 1
1 0.447059 0.337255 1
1 0.447059 0.337255 1
1 0.447059 0.337255 1
1 0.447059 0.337255 1
1 0.447059 0.337255 1
1 0.447059 0.337255 1
1 0.447059 0.337255 1
1 0.447059 0.337255 1
1 0.447059 0.337255 1
1 0.447059 0.337255 1
1 0.447059 0.337255 1
1 0.447059 0.337255 1
1 0.447059 0.337255 1
1 0.447059 0.337255 1
1 0.447059 0.337255 1
1 0.447059 0.337255 1
1 0.447059 0.337255 1
1 0.447059 0.337255 1
1 0.447059 0.337255 1
1 0.447059 0.337255 1
1 0.447059 0.337255 1
1 0.447059 0.337255 1
1 0.447059 0.337255 1
1 0.447059 0.337255 1
1 0.447059 0.337255 1
1 0.447059 0.337255 1
1 0.447059 0.337255 1
1 0.447059 0.337255 1
1 0.447059 0.337255 1
1 0.447059 0.337255 1
1 0.447059 0.337255 1
1 0.447059 0.337255 1
1 0.447059 0.337255 1
1 0.447059 0.337255 1
1 0.447059 0.337255 1
1 0.447059 0.337255 1
1 0.447059 0.337255 1
1 0.447059 0.337255 1
1 0.447059 0.337255 1
1 0.447059 0.337255 1
1 0.447059 0.337255 1
1 0.447059 0.337255 1
1 0.447059 0.337255 1
1 0.447059 0.337255 1
1 0.447059 0.337255 1
1 0.447059 0.337255 1
1 0.447059 0.337255 1
1 0.447059 0.337255 1
1 0.447059 0.337255 1
1 0.447059 0.337255 1
1 0.447059 0.337255 1
1 0.447059 0.337255 1
1 0.447059 0.337255 1
1 0.447059 0.337255 1
1 0.447059 0.337255 1
1 0.447059 0.337255 1
1 0.447059 0.337255 1
1 0.447059 0.337255 1
1 0.447059 0.337255 1
1 0.447059 0.337255 1
1 0.447059 0.337255 1
1 0.447059 0.337255 1
1 0.447059 0.337255 1
1 0.447059 0.337255 1
1 0.447059 0.337255 1
1 0.447059 0.337255 1
1 0.447059 0.337255 1
1 0.447059 0.337255 1
1 0.447059 0.337255 1
1 0.447059 0.337255 1
1 0.447059 0.337255 1
1 0.447059 0.337255 1
1 0.447059 0.337255 1
1 0.447059 0.337255 1
1 0.447059 0.337255 1
1 0.447059 0.337255 1
1 0.447059 0.337255 1
1 0.447059 0.337255 1
1 0.447059 0.337255 1
1 0.447059 0.337255 1
1 0.447059 0.337255 1
1 0.447059 0.337255 1
1 0.447059 0.337255 1
1 0.447059 0.337255 1
1 0.447059 0.337255 1
1 0.447059 0.337255 1
1 0.447059 0.337255 1
1 0.447059 0.337255 1
1 0.447059 0.337255 1
1 0.447059 0.337255 1
1 0.447059 0.337255 1
1 0.447059 0.337255 1
1 0.447059 0.337255 1
1 0.447059 0.337255 1
1 0.447059 0.337255 1
1 0.447059 0.337255 1
1 0.447059 0.337255 1
1 0.447059 0.337255 1
1 0.447059 0.337255 1
1 0.447059 0.337255 1
1 0.447059 0.337255 1
1 0.447059 0.337255 1
1 0.447059 0.337255 1
1 0.447059 0.337255 1
1 0.447059 0.337255 1
1 0.447059 0.337255 1
1 0.447059 0.337255 1
1 0.447059 0.337255 1
1 0.447059 0.337255 1
1 0.447059 0.337255 1
1 0.447059 0.337255 1
1 0.447059 0.337255 1
1 0.447059 0.337255 1
1 0.447059 0.337255 1
1 0.447059 0.337255 1
1 0.447059 0.337255 1
1 0.447059 0.337255 1
1 0.447059 0.337255 1
1 0.447059 0.337255 1
1 0.447059 0.337255 1
1 0.447059 0.337255 1
1 0.447059 0.337255 1
1 0.447059 0.337255 1
1 0.447059 0.337255 1
1 0.447059 0.337255 1
1 0.447059 0.337255 1
1 0.447059 0.337255 1
1 0.447059 0.337255 1
1 0.447059 0.337255 1
1 0.447059 0.337255 1
1 0.447059 0.337255 1
1 0.447059 0.337255 1
1 0.447059 0.337255 1
1 0.447059 0.337255 1
1 0.447059 0.337255 1
1 0.447059 0.337255 1
1 0.447059 0.337255 1
1 0.447059 0.337255 1
1 0.447059 0.337255 1
1 0.447059 0.337255 1
1 0.447059 0.337255 1
1 0.447059 0.337255 1
1 0.447059 0.337255 1
1 0.447059 0.337255 1
1 0.447059 0.337255 1
1 0.447059 0.337255 1
1 0.447059 0.337255 1
1 0.447059 0.337255 1
1 0.447059 0.337255 1
1 0.447059 0.337255 1
1 0.447059 0.337255 1
1 0.447059 0.337255 1
1 0.447059 0.337255 1
1 0.447059 0.337255 1
1 0.447059 0.337255 1
1 0.447059 0.337255 1
1 0.447059 0.337255 1
1 0.447059 0.337255 1
1 0.447059 0.337255 1
1 0.447059 0.337255 1
1 0.447059 0.337255 1
1 0.447059 0.337255 1
1 0.447059 0.337255 1
1 0.447059 0.337255 1
1 0.447059 0.337255 1
1 0.447059 0.337255 1
1 0.447059 0.337255 1
1 0.447059 0.337255 1
1 0.447059 0.337255 1
1 0.447059 0.337255 1
1 0.447059 0.337255 1
1 0.447059 0.337255 1
1 0.447059 0.337255 1
1 0.447059 0.337255 1
1 0.447059 0.337255 1
1 0.447059 0.337255 1
1 0.447059 0.337255 1
1 0.447059 0.337255 1
1 0.447059 0.337255 1
1 0.447059 0.337255 1
1 0.447059 0.337255 1
1 0.447059 0.337255 1
1 0.447059 0.337255 1
1 0.447059 0.337255 1
1 0.447059 0.337255 1
1 0.447059 0.337255 1
1 0.447059 0.337255 1
1 0.447059 0.337255 1
1 0.447059 0.337255 1
1 0.447059 0.337255 1
1 0.447059 0.337255 1
1 0.447059 0.337255 1
1 0.447059 0.337255 1
1 0.447059 0.337255 1
1 0.447059 0.337255 1
1 0.447059 0.337255 1
1 0.447059 0.337255 1
1 0.447059 0.337255 1
1 0.447059 0.337255 1
1 0.447059 0.337255 1
1 0.447059 0.337255 1
1 0.447059 0.337255 1
1 0.447059 0.337255 1
1 0.447059 0.337255 1
1 0.447059 0.337255 1
1 0.447059 0.337255 1
1 0.447059 0.337255 1
1 0.447059 0.337255 1
1 0.447059 0.337255 1
1 0.447059 0.337255 1
1 0.447059 0.337255 1
1 0.447059 0.337255 1
1 0.447059 0.337255 1
1 0.447059 0.337255 1
1 0.447059 0.337255 1
1 0.447059 0.337255 1
1 0.447059 0.337255 1
1 0.447059 0.337255 1
1 0.447059 0.337255 1
1 0.447059 0.337255 1
1 0.447059 0.337255 1
1 0.447059 0.337255 1
1 0.447059 0.337255 1
1 0.447059 0.337255 1
1 0.447059 0.337255 1
1 0.447059 0.337255 1
1 0.447059 0.337255 1
1 0.447059 0.337255 1
1 0.447059 0.337255 1
1 0.447059 0.337255 1
1 0.447059 0.337255 1
1 0.447059 0.337255 1
1 0.447059 0.337255 1
1 0.447059 0.337255 1
1 0.447059 0.337255 1
1 0.447059 0.337255 1
1 0.447059 0.337255 1
1 0.447059 0.337255 1
1 0.447059 0.337255 1
1 0.447059 0.337255 1
1 0.447059 0.337255 1
1 0.447059 0.337255 1
1 0.447059 0.337255 1
1 0.447059 0.337255 1
1 0.447059 0.337255 1
1 0.447059 0.337255 1
1 0.447059 0.337255 1
1 0.447059 0.337255 1
1 0.447059 0.337255 1
1 0.447059 0.337255 1
1 0.447059 0.337255 1
1 0.447059 0.337255 1
1 0.447059 0.337255 1
1 0.447059 0.337255 1
1 0.447059 0.337255 1
1 0.447059 0.337255 1
1 0.447059 0.337255 1
1 0.447059 0.337255 1
1 0.447059 0.337255 1
1 0.447059 0.337255 1
1 0.447059 0.337255 1
1 0.447059 0.337255 1
1 0.447059 0.337255 1
1 0.447059 0.337255 1
1 0.447059 0.337255 1
1 0.447059 0.337255 1
1 0.447059 0.337255 1
1 0.447059 0.337255 1
1 0.447059 0.337255 1
1 0.447059 0.337255 1
1 0.447059 0.337255 1
1 0.447059 0.337255 1

