# vtk DataFile Version 3.0
Gocad TSurf to VTK
ASCII
DATASET POLYDATA
POINTS 2686 float
21577992.016 4553856.688 -1000.000
21577954.156 4553940.492 -750.000
21578179.844 4553885.016 -500.000
21577916.281 4554024.293 -500.000
21578855.734 4553627.078 -750.000
21577666.984 4553942.223 -1000.000
21578115.609 4553767.852 -1451.555
21578087.188 4553774.918 -1454.869
21578241.219 4553729.691 -1436.849
21579018.422 4553531.656 -1000.000
21578629.250 4553618.891 -1391.485
21578705.750 4553596.629 -1388.579
21578913.688 4553536.512 -1375.000
21579099.906 4553483.367 -1352.840
21579666.133 4553383.473 -1279.428
21580085.414 4553318.398 -1224.199
21580010.625 4553360.586 -1000.000
21579123.617 4553546.582 -750.000
21580471.164 4553218.512 -1177.295
21580623.617 4553179.008 -1159.050
21580831.758 4553138.195 -1000.000
21580193.070 4553359.469 -750.000
21580821.336 4553127.773 -1135.385
21580953.477 4553128.137 -1117.609
21581286.969 4553146.711 -1071.749
21581276.539 4553155.305 -1000.000
21581142.508 4553205.508 -750.000
21581325.422 4553149.051 -1066.451
21581359.055 4553153.922 -1061.656
21581743.383 4553256.176 -750.000
21581314.422 4553200.633 -750.000
21581708.813 4553204.543 -1011.796
21581784.102 4553234.199 -1000.000
21582076.570 4553353.609 -925.717
21582209.375 4553418.711 -890.991
21582198.969 4553449.641 -750.000
21581816.766 4553339.941 -500.000
21582393.961 4553487.203 -844.737
21582438.805 4553502.191 -833.649
21582719.563 4553598.785 -750.000
21582322.297 4553554.074 -500.000
21582719.219 4553595.918 -764.324
21582791.711 4553580.750 -750.000
21582725.594 4553648.805 -500.000
21582570.344 4553631.055 -500.000
21582906.734 4553556.676 -727.273
21583036.188 4553557.719 -500.000
21582800.063 4553681.723 -250.000
21582937.617 4553548.641 -721.314
21583146.953 4553520.934 -678.482
21583207.258 4553694.570 -500.000
21583120.539 4553592.129 -250.000
21583196.875 4553571.730 -663.024
21583225.406 4553747.629 -640.776
21583186.164 4553873.914 -637.745
21583059.898 4554029.484 -500.000
21583059.719 4553858.285 -250.000
21583120.242 4554024.277 -638.298
21583221.367 4554182.793 -601.905
21583257.422 4554294.766 -500.000
21582902.313 4554139.633 -250.000
21583326.875 4554255.688 -572.384
21583373.078 4554245.066 -563.342
21583615.156 4554185.715 -529.667
21583631.023 4554189.203 -500.000
21583151.250 4554459.133 0.000
21583650.781 4554176.996 -524.711
21583841.680 4554101.973 -500.000
21583931.531 4554171.563 -250.000
21583898.461 4554248.012 0.000
21584085.102 4554014.875 -467.931
21584113.109 4553995.301 -464.866
21584146.180 4554016.613 -250.000
21584320.422 4553863.648 -441.312
21584372.008 4553830.891 -435.451
21584414.570 4553801.840 -440.694
21584545.438 4553753.977 -250.000
21584194.891 4554034.676 130.698
21584815.086 4553565.988 -482.191
21584776.375 4553621.398 -250.000
21584716.992 4553691.230 0.000
21584831.953 4553556.055 -483.938
21585169.531 4553409.973 -250.000
21585084.109 4553513.258 0.000
21584854.344 4553543.691 -486.087
21585095.227 4553410.641 -509.204
21585340.109 4553323.621 -522.620
21585630.664 4553227.199 -500.000
21585626.594 4553254.594 -250.000
21585631.281 4553223.039 -537.969
21586037.891 4553203.270 -534.170
21586069.898 4553205.398 -500.000
21585799.063 4553238.715 -250.000
21586041.859 4553203.254 -532.517
21586066.648 4553201.590 -522.594
21586081.813 4553207.938 -514.627
21586108.141 4553222.012 -500.000
21586340.766 4553331.750 -374.544
21586225.570 4553290.320 -250.000
21586016.383 4553213.961 -250.000
21586376.047 4553347.621 -366.706
21586583.344 4553473.520 -250.000
21586267.602 4553330.238 0.000
21586576.063 4553461.090 -301.404
21586604.461 4553492.832 -278.255
21586620.094 4553527.777 -250.000
21586722.734 4553683.195 -130.199
21586618.781 4553533.973 0.000
21586733.961 4553703.039 -114.568
21586738.320 4553744.195 157.242
21586641.547 4553574.016 314.795
21586783.430 4553787.188 -72.201
21586888.547 4554040.660 37.080
21586909.664 4554081.816 56.515
21586795.289 4553853.766 312.592
21586721.250 4553714.164 314.484
21586930.078 4554122.512 75.537
21586914.961 4554092.375 311.872
21586875.070 4554012.840 468.528
21586918.773 4554159.098 80.256
21586871.188 4554238.625 317.054
21586915.797 4554164.090 468.525
21586711.305 4554505.832 83.053
21586654.555 4554600.668 326.746
21586839.336 4554291.867 475.580
21586654.555 4554600.668 83.818
21586631.406 4554636.633 83.428
21586561.797 4554744.789 334.316
21586621.633 4554653.156 492.548
21586621.461 4554652.809 83.446
21586588.523 4554704.695 166.483
21586441.555 4554925.188 335.666
21586597.344 4554706.254 87.162
21586566.563 4554752.602 86.262
21586566.383 4554752.832 86.248
21586432.055 4554939.441 36.503
21586414.828 4554965.277 167.833
21586391.445 4555000.359 20.962
21586331.922 4555073.371 0.000
21586188.414 4555247.070 0.000
21586161.953 4555286.063 173.639
21586253.758 4555173.887 -28.045
21586218.984 4555221.863 -56.074
21586169.258 4555324.105 -110.579
21586153.828 4555353.949 -126.685
21585807.711 4555918.406 -250.000
21586035.695 4555582.457 -250.000
21586010.336 4555631.504 -276.469
21585968.617 4555822.902 -570.835
21585815.734 4555919.387 -279.001
21585803.703 4555921.820 -250.015
21585962.039 4555853.086 -617.254
21585875.766 4555906.449 -450.112
21585889.422 4555910.281 -504.391
21585894.383 4555911.676 -524.124
21585925.078 4555920.289 -646.125
21585930.086 4555925.699 -675.096
21585944.172 4555935.066 -743.342
21585938.070 4555934.324 -721.278
21585938.484 4555934.836 -724.418
21585944.078 4555935.211 -743.556
21585803.703 4555921.820 -250.000
21585801.266 4555922.379 -241.856
21585796.680 4555923.426 -226.501
21585738.563 4555909.965 175.617
21585741.875 4555936.504 -27.153
21586095.797 4555383.547 348.191
21586175.188 4555266.566 346.366
21585778.250 4555851.477 350.321
21585765.023 4555870.969 350.625
21586009.797 4555510.281 523.200
21586069.336 4555422.539 521.831
21585897.336 4555676.004 523.200
21585798.102 4555822.230 525.482
21585950.258 4555598.016 697.600
21585923.797 4555637.008 698.208
21585976.719 4555559.020 696.991
21586003.180 4555520.027 696.383
21586029.641 4555481.031 695.774
21586056.102 4555442.039 695.166
21586128.875 4555334.805 520.461
21586082.570 4555403.047 694.557
21586109.031 4555364.051 693.949
21586135.492 4555325.059 693.340
21586148.719 4555305.563 520.005
21586161.953 4555286.063 692.731
21586188.414 4555247.070 692.123
21586231.203 4555195.277 518.439
21586216.945 4555212.543 691.688
21586245.469 4555178.012 691.252
21586302.531 4555108.953 518.112
21586274.000 4555143.484 690.816
21586302.523 4555108.953 689.752
21586345.320 4555057.160 515.409
21586401.469 4554985.320 339.717
21586331.055 4555074.426 687.213
21586359.578 4555039.895 684.673
21586388.109 4555005.367 682.133
21586408.148 4554975.301 509.575
21586414.828 4554965.277 679.433
21586441.555 4554925.188 676.733
21586468.273 4554885.098 674.032
21586468.281 4554885.098 503.499
21586495.000 4554845.008 671.332
21586521.719 4554804.922 668.632
21586548.438 4554764.832 665.932
21586601.883 4554684.652 494.977
21586575.164 4554724.742 663.132
21586601.883 4554684.652 659.970
21586628.219 4554642.660 656.731
21586654.555 4554600.668 653.492
21586673.672 4554568.723 487.696
21586680.039 4554558.074 650.261
21586705.531 4554515.480 647.030
21586750.125 4554440.945 478.004
21586731.016 4554472.891 643.800
21586756.500 4554430.297 640.569
21586781.984 4554387.703 637.338
21586807.477 4554345.109 634.107
21586832.961 4554302.516 630.877
21586896.672 4554196.035 469.960
21586858.445 4554259.922 628.527
21586883.930 4554217.332 626.614
21586909.422 4554174.738 624.699
21586934.906 4554132.145 622.785
21586904.984 4554072.492 467.808
21586914.961 4554092.375 623.265
21586895.016 4554052.605 623.745
21586875.070 4554012.840 624.224
21586855.125 4553973.070 624.704
21586835.180 4553933.301 625.183
21586815.234 4553893.531 468.887
21586815.234 4553893.531 625.663
21586795.289 4553853.766 626.142
21586775.344 4553813.996 626.622
21586721.242 4553714.164 471.259
21586755.398 4553774.227 627.101
21586732.625 4553734.184 627.723
21586709.859 4553694.141 628.345
21586704.172 4553684.133 471.725
21586687.094 4553654.102 628.967
21586664.320 4553614.059 629.589
21586618.781 4553533.973 473.125
21586641.547 4553574.016 630.212
21586618.781 4553533.973 630.833
21586579.758 4553511.336 632.540
21586530.984 4553483.039 474.997
21586579.766 4553511.336 316.938
21586540.742 4553488.699 633.875
21586501.719 4553466.063 633.330
21586472.453 4553449.082 474.180
21586462.703 4553443.426 632.785
21586423.680 4553420.785 632.239
21586384.656 4553398.148 474.180
21586345.641 4553375.512 316.120
21586384.664 4553398.148 631.694
21586345.641 4553375.512 631.149
21586306.625 4553352.875 630.604
21586296.867 4553347.215 472.953
21586267.602 4553330.238 630.059
21586225.648 4553316.727 629.834
21586173.203 4553299.840 472.207
21586246.625 4553323.484 314.917
21586183.695 4553303.219 629.609
21586141.742 4553289.707 629.385
21586101.992 4553274.777 629.101
21586111.930 4553278.508 471.826
21586141.742 4553289.707 314.692
21586062.242 4553259.848 628.817
21586022.492 4553244.918 628.533
21585990.609 4553247.898 471.671
21585979.984 4553248.891 628.895
21585916.234 4553254.855 471.943
21585979.984 4553248.891 314.629
21585937.484 4553252.867 629.257
21585894.984 4553256.844 629.620
21585852.477 4553260.816 629.982
21585852.477 4553260.816 472.486
21585783.492 4553267.168 315.575
21585806.484 4553265.051 630.372
21585760.492 4553269.285 630.761
21585691.516 4553275.637 473.363
21585714.508 4553273.520 631.151
21585668.516 4553277.754 631.541
21585622.523 4553281.988 631.930
21585622.523 4553281.988 473.948
21585668.516 4553277.754 315.575
21585580.156 4553296.137 629.518
21585537.781 4553310.285 625.778
21585463.633 4553335.047 460.918
21585601.336 4553289.063 156.444
21585495.414 4553324.434 622.038
21585453.047 4553338.582 618.298
21585410.672 4553352.734 614.558
21585304.750 4553388.105 455.309
21585283.563 4553395.180 303.539
[...]
POINT_DATA 2686
COLOR_SCALARS GocadColor 4
0.854902 0.666667 0 1
0.854902 0.666667 0 1
0.854902 0.666667 0 1
0.854902 0.666667 0 1
0.854902 0.666667 0 1
0.854902 0.666667 0 1
0.854902 0.666667 0 1
0.854902 0.666667 0 1
0.854902 0.666667 0 1
0.854902 0.666667 0 1
0.854902 0.666667 0 1
0.854902 0.666667 0 1
0.854902 0.666667 0 1
0.854902 0.666667 0 1
0.854902 0.666667 0 1
0.854902 0.666667 0 1
0.854902 0.666667 0 1
0.854902 0.666667 0 1
0.854902 0.666667 0 1
0.854902 0.666667 0 1
0.854902 0.666667 0 1
0.854902 0.666667 0 1
0.854902 0.666667 0 1
0.854902 0.666667 0 1
0.854902 0.666667 0 1
0.854902 0.666667 0 1
0.854902 0.666667 0 1
0.854902 0.666667 0 1
0.854902 0.666667 0 1
0.854902 0.666667 0 1
0.854902 0.666667 0 1
0.854902 0.666667 0 1
0.854902 0.666667 0 1
0.854902 0.666667 0 1
0.854902 0.666667 0 1
0.854902 0.666667 0 1
0.854902 0.666667 0 1
0.854902 0.666667 0 1
0.854902 0.666667 0 1
0.854902 0.666667 0 1
0.854902 0.666667 0 1
0.854902 0.666667 0 1
0.854902 0.666667 0 1
0.854902 0.666667 0 1
0.854902 0.666667 0 1
0.854902 0.666667 0 1
0.854902 0.666667 0 1
0.854902 0.666667 0 1
0.854902 0.666667 0 1
0.854902 0.666667 0 1
0.854902 0.666667 0 1
0.854902 0.666667 0 1
0.854902 0.666667 0 1
0.854902 0.666667 0 1
0.854902 0.666667 0 1
0.854902 0.666667 0 1
0.854902 0.666667 0 1
0.854902 0.666667 0 1
0.854902 0.666667 0 1
0.854902 0.666667 0 1
0.854902 0.666667 0 1
0.854902 0.666667 0 1
0.854902 0.666667 0 1
0.854902 0.666667 0 1
0.854902 0.666667 0 1
0.854902 0.666667 0 1
0.854902 0.666667 0 1
0.854902 0.666667 0 1
0.854902 0.666667 0 1
0.854902 0.666667 0 1
0.854902 0.666667 0 1
0.854902 0.666667 0 1
0.854902 0.666667 0 1
0.854902 0.666667 0 1
0.854902 0.666667 0 1
0.854902 0.666667 0 1
0.854902 0.666667 0 1
0.854902 0.666667 0 1
0.854902 0.666667 0 1
0.854902 0.666667 0 1
0.854902 0.666667 0 1
0.854902 0.666667 0 1
0.854902 0.666667 0 1
0.854902 0.666667 0 1
0.854902 0.666667 0 1
0.854902 0.666667 0 1
0.854902 0.666667 0 1
0.854902 0.666667 0 1
0.854902 0.666667 0 1
0.854902 0.666667 0 1
0.854902 0.666667 0 1
0.854902 0.666667 0 1
0.854902 0.666667 0 1
0.854902 0.666667 0 1
0.854902 0.666667 0 1
0.854902 0.666667 0 1
0.854902 0.666667 0 1
0.854902 0.666667 0 1
0.854902 0.666667 0 1
0.854902 0.666667 0 1
0.854902 0.666667 0 1
0.854902 0.666667 0 1
0.854902 0.666667 0 1
0.854902 0.666667 0 1
0.854902 0.666667 0 1
0.854902 0.666667 0 1
0.854902 0.666667 0 1
0.854902 0.666667 0 1
0.854902 0.666667 0 1
0.854902 0.666667 0 1
0.854902 0.666667 0 1
0.854902 0.666667 0 1
0.854902 0.666667 0 1
0.854902 0.666667 0 1
0.854902 0.666667 0 1
0.854902 0.666667 0 1
0.854902 0.666667 0 1
0.854902 0.666667 0 1
0.854902 0.666667 0 1
0.854902 0.666667 0 1
0.854902 0.666667 0 1
0.854902 0.666667 0 1
0.854902 0.666667 0 1
0.854902 0.666667 0 1
0.854902 0.666667 0 1
0.854902 0.666667 0 1
0.854902 0.666667 0 1
0.854902 0.666667 0 1
0.854902 0.666667 0 1
0.854902 0.666667 0 1
0.854902 0.666667 0 1
0.854902 0.666667 0 1
0.854902 0.666667 0 1
0.854902 0.666667 0 1
0.854902 0.666667 0 1
0.854902 0.666667 0 1
0.854902 0.666667 0 1
0.854902 0.666667 0 1
0.854902 0.666667 0 1
0.854902 0.666667 0 1
0.854902 0.666667 0 1
0.854902 0.666667 0 1
0.854902 0.666667 0 1
0.854902 0.666667 0 1
0.854902 0.666667 0 1
0.854902 0.666667 0 1
0.854902 0.666667 0 1
0.854902 0.666667 0 1
0.854902 0.666667 0 1
0.854902 0.666667 0 1
0.854902 0.666667 0 1
0.854902 0.666667 0 1
0.854902 0.666667 0 1
0.854902 0.666667 0 1
0.854902 0.666667 0 1
0.854902 0.666667 0 1
0.854902 0.666667 0 1
0.854902 0.666667 0 1
0.854902 0.666667 0 1
0.854902 0.666667 0 1
0.854902 0.666667 0 1
0.854902 0.666667 0 1
0.854902 0.666667 0 1
0.854902 0.666667 0 1
0.854902 0.666667 0 1
0.854902 0.666667 0 1
0.854902 0.666667 0 1
0.854902 0.666667 0 1
0.854902 0.666667 0 1
0.854902 0.666667 0 1
0.854902 0.666667 0 1
0.854902 0.666667 0 1
0.854902 0.666667 0 1
0.854902 0.666667 0 1
0.854902 0.666667 0 1
0.854902 0.666667 0 1
0.854902 0.666667 0 1
0.854902 0.666667 0 1
0.854902 0.666667 0 1
0.854902 0.666667 0 1
0.854902 0.666667 0 1
0.854902 0.666667 0 1
0.854902 0.666667 0 1
0.854902 0.666667 0 1
0.854902 0.666667 0 1
0.854902 0.666667 0 1
0.854902 0.666667 0 1
0.854902 0.666667 0 1
0.854902 0.666667 0 1
0.854902 0.666667 0 1
0.854902 0.666667 0 1
0.854902 0.666667 0 1
0.854902 0.666667 0 1
0.854902 0.666667 0 1
0.854902 0.666667 0 1
0.854902 0.666667 0 1
0.854902 0.666667 0 1
0.854902 0.666667 0 1
0.854902 0.666667 0 1
0.854902 0.666667 0 1
0.854902 0.666667 0 1
0.854902 0.666667 0 1
0.854902 0.666667 0 1
0.854902 0.666667 0 1
0.854902 0.666667 0 1
0.854902 0.666667 0 1
0.854902 0.666667 0 1
0.854902 0.666667 0 1
0.854902 0.666667 0 1
0.854902 0.666667 0 1
0.854902 0.666667 0 1
0.854902 0.666667 0 1
0.854902 0.666667 0 1
0.854902 0.666667 0 1
0.854902 0.666667 0 1
0.854902 0.666667 0 1
0.854902 0.666667 0 1
0.854902 0.666667 0 1
0.854902 0.666667 0 1
0.854902 0.666667 0 1
0.854902 0.666667 0 1
0.854902 0.666667 0 1
0.854902 0.666667 0 1
0.854902 0.666667 0 1
0.854902 0.666667 0 1
0.854902 0.666667 0 1
0.854902 0.666667 0 1
0.854902 0.666667 0 1
0.854902 0.666667 0 1
0.854902 0.666667 0 1
0.854902 0.666667 0 1
0.854902 0.666667 0 1
0.854902 0.666667 0 1
0.854902 0.666667 0 1
0.854902 0.666667 0 1
0.854902 0.666667 0 1
0.854902 0.666667 0 1
0.854902 0.666667 0 1
0.854902 0.666667 0 1
0.854902 0.666667 0 1
0.854902 0.666667 0 1
0.854902 0.666667 0 1
0.854902 0.666667 0 1
0.854902 0.666667 0 1
0.854902 0.666667 0 1
0.854902 0.666667 0 1
0.854902 0.666667 0 1
0.854902 0.666667 0 1
0.854902 0.666667 0 1
0.854902 0.666667 0 1
0.854902 0.666667 0 1
0.854902 0.666667 0 1
0.854902 0.666667 0 1
0.854902 0.666667 0 1
0.854902 0.666667 0 1
0.854902 0.666667 0 1
0.854902 0.666667 0 1
0.854902 0.666667 0 1
0.854902 0.666667 0 1
0.854902 0.666667 0 1
0.854902 0.666667 0 1
0.854902 0.666667 0 1
0.854902 0.666667 0 1
0.854902 0.666667 0 1
0.854902 0.666667 0 1
0.854902 0.666667 0 1
0.854902 0.666667 0 1
0.854902 0.666667 0 1
0.854902 0.666667 0 1
0.854902 0.666667 0 1
0.854902 0.666667 0 1
0.854902 0.666667 0 1
0.854902 0.666667 0 1
0.854902 0.666667 0 1
0.854902 0.666667 0 1
0.854902 0.666667 0 1
0.854902 0.666667 0 1
0.854902 0.666667 0 1
0.854902 0.666667 0 1
0.854902 0.666667 0 1
0.854902 0.666667 0 1
0.854902 0.666667 0 1
0.854902 0.666667 0 1
0.854902 0.666667 0 1
0.854902 0.666667 0 1
0.854902 0.666667 0 1
0.854902 0.666667 0 1
0.854902 0.666667 0 1
0.854902 0.666667 0 1
0.854902 0.666667 0 1
0.854902 0.666667 0 1
0.854902 0.666667 0 1
0.854902 0.666667 0 1
0.854902 0.666667 0 1
0.854902 0.666667 0 1
0.854902 0.666667 0 1
0.854902 0.666667 0 1
0.854902 0.666667 0 1
0.854902 0.666667 0 1
0.854902 0.666667 0 1
0.854902 0.666667 0 1
0.854902 0.666667 0 1
0.854902 0.666667 0 1
0.854902 0.666667 0 1
0.854902 0.666667 0 1
0.854902 0.666667 0 1
0.854902 0.666667 0 1
0.854902 0.666667 0 1
0.854902 0.666667 0 1
0.854902 0.666667 0 1
0.854902 0.666667 0 1
0.854902 0.666667 0 1
0.854902 0.666667 0 1
0.854902 0.666667 0 1
0.854902 0.666667 0 1
0.854902 0.666667 0 1
0.854902 0.666667 0 1
0.854902 0.666667 0 1
0.854902 0.666667 0 1
0.854902 0.666667 0 1
0.854902 0.666667 0 1
0.854902 0.666667 0 1
0.854902 0.666667 0 1
0.854902 0.666667 0 1
0.854902 0.666667 0 1
0.854902 0.666667 0 1
0.854902 0.666667 0 1
0.854902 0.666667 0 1
0.854902 0.666667 0 1
0.854902 0.666667 0 1
0.854902 0.666667 0 1
0.854902 0.666667 0 1
0.854902 0.666667 0 1
0.854902 0.666667 0 1
0.854902 0.666667 0 1
0.854902 0.666667 0 1
0.854902 0.666667 0 1
0.854902 0.666667 0 1
0.854902 0.666667 0 1
0.854902 0.666667 0 1
0.854902 0.666667 0 1
0.854902 0.666667 0 1
0.854902 0.666667 0 1
0.854902 0.666667 0 1
0.854902 0.666667 0 1
0.854902 0.666667 0 1
0.854902 0.666667 0 1
0.854902 0.666667 0 1
0.854902 0.666667 0 1
0.854902 0.666667 0 1
0.854902 0.666667 0 1
0.854902 0.666667 0 1
0.854902 0.666667 0 1
0.854902 0.666667 0 1
0.854902 0.666667 0 1
0.854902 0.666667 0 1
0.854902 0.666667 0 1
0.854902 0.666667 0 1
0.854902 0.666667 0 1
0.854902 0.666667 0 1
0.854902 0.666667 0 1
0.854902 0.666667 0 1
0.854902 0.666667 0 1
0.854902 0.666667 0 1
0.854902 0.666667 0 1
0.854902 0.666667 0 1
0.854902 0.666667 0 1
0.854902 0.666667 0 1
0.854902 0.666667 0 1
0.854902 0.666667 0 1
0.854902 0.666667 0 1
0.854902 0.666667 0 1
0.854902 0.666667 0 1
0.854902 0.666667 0 1
0.854902 0.666667 0 1
0.854902 0.666667 0 1
0.854902 0.666667 0 1
0.854902 0.666667 0 1
0.854902 0.666667 0 1
0.854902 0.666667 0 1
0.854902 0.666667 0 1
0.854902 0.666667 0 1
0.854902 0.666667 0 1
0.854902 0.666667 0 1
0.854902 0.666667 0 1
0.854902 0.666667 0 1
0.854902 0.666667 0 1
0.854902 0.666667 0 1
0.854902 0.666667 0 1
0.854902 0.666667 0 1
0.854902 0.666667 0 1
0.854902 0.666667 0 1
0.854902 0.666667 0 1
0.854902 0.666667 0 1
0.854902 0.666667 0 1
0.854902 0.666667 0 1
0.854902 0.666667 0 1
0.854902 0.666667 0 1
0.854902 0.666667 0 1
0.854902 0.666667 0 1
0.854902 0.666667 0 1
0.854902 0.666667 0 1
0.854902 0.666667 0 1
0.854902 0.666667 0 1
0.854902 0.666667 0 1
0.854902 0.666667 0 1
0.854902 0.666667 0 1
0.854902 0.666667 0 1
0.854902 0.666667 0 1
0.854902 0.666667 0 1
0.854902 0.666667 0 1
0.854902 0.666667 0 1
0.854902 0.666667 0 1
0.854902 0.666667 0 1
0.854902 0.666667 0 1
0.854902 0.666667 0 1
0.854902 0.666667 0 1
0.854902 0.666667 0 1
0.854902 0.666667 0 1
0.854902 0.666667 0 1
0.854902 0.666667 0 1
0.854902 0.666667 0 1
0.854902 0.666667 0 1
0.854902 0.666667 0 1
0.854902 0.666667 0 1
0.854902 0.666667 0 1
0.854902 0.666667 0 1
0.854902 0.666667 0 1
0.854902 0.666667 0 1
0.854902 0.666667 0 1
0.854902 0.666667 0 1
0.854902 0.666667 0 1
0.854902 0.666667 0 1
0.854902 0.666667 0 1
0.854902 0.666667 0 1
0.854902 0.666667 0 1
0.854902 0.666667 0 1
0.854902 0.666667 0 1
0.854902 0.666667 0 1
0.854902 0.666667 0 1
0.854902 0.666667 0 1
0.854902 0.666667 0 1
0.854902 0.666667 0 1
0.854902 0.666667 0 1
0.854902 0.666667 0 1
0.854902 0.666667 0 1
0.854902 0.666667 0 1
0.854902 0.666667 0 1
0.854902 0.666667 0 1
0.854902 0.666667 0 1
0.854902 0.666667 0 1
0.854902 0.666667 0 1
0.854902 0.666667 0 1
0.854902 0.666667 0 1
0.854902 0.666667 0 1
0.854902 0.666667 0 1
0.854902 0.666667 0 1
0.854902 0.666667 0 1
0.854902 0.666667 0 1
0.854902 0.666667 0 1
0.854902 0.666667 0 1
0.854902 0.666667 0 1
0.854902 0.666667 0 1
0.854902 0.666667 0 1
0.854902 0.666667 0 1
0.854902 0.666667 0 1
0.854902 0.666667 0 1
0.854902 0.666667 0 1
0.854902 0.666667 0 1
0.854902 0.666667 0 1
0.854902 0.666667 0 1
0.854902 0.666667 0 1
0.854902 0.666667 0 1
0.854902 0.666667 0 1
0.854902 0.666667 0 1
0.854902 0.666667 0 1
0.854902 0.666667 0 1
0.854902 0.666667 0 1
0.854902 0.666667 0 1
0.854902 0.666667 0 1
0.854902 0.666667 0 1
0.854902 0.666667 0 1
0.854902 0.666667 0 1
0.854902 0.666667 0 1
0.854902 0.666667 0 1
0.854902 0.666667 0 1
0.854902 0.666667 0 1
0.854902 0.666667 0 1
0.854902 0.666667 0 1
0.854902 0.666667 0 1
0.854902 0.666667 0 1
0.854902 0.666667 0 1
0.854902 0.666667 0 1
0.854902 0.666667 0 1
0.854902 0.666667 0 1
0.854902 0.666667 0 1
0.854902 0.666667 0 1
0.854902 0.666667 0 1
0.854902 0.666667 0 1
0.854902 0.666667 0 1
0.854902 0.666667 0 1
0.854902 0.666667 0 1
0.854902 0.666667 0 1
0.854902 0.666667 0 1
0.854902 0.666667 0 1
0.854902 0.666667 0 1
0.854902 0.666667 0 1
0.854902 0.666667 0 1
0.854902 0.666667 0 1
0.854902 0.666667 0 1
0.854902 0.666667 0 1
0.854902 0.666667 0 1
0.854902 0.666667 0 1
0.854902 0.666667 0 1
0.854902 0.666667 0 1
0.854902 0.666667 0 1
0.854902 0.666667 0 1
0.854902 0.666667 0 1
0.854902 0.666667 0 1
0.854902 0.666667 0 1
0.854902 0.666667 0 1
0.854902 0.666667 0 1
0.854902 0.666667 0 1
0.854902 0.666667 0 1
0.854902 0.666667 0 1
0.854902 0.666667 0 1
0.854902 0.666667 0 1
0.854902 0.666667 0 1
0.854902 0.666667 0 1
0.854902 0.666667 0 1
0.854902 0.666667 0 1
0.854902 0.666667 0 1
0.854902 0.666667 0 1
0.854902 0.666667 0 1
0.854902 0.666667 0 1
0.854902 0.666667 0 1
0.854902 0.666667 0 1
0.854902 0.666667 0 1
0.854902 0.666667 0 1
0.854902 0.666667 0 1
0.854902 0.666667 0 1
0.854902 0.666667 0 1
0.854902 0.666667 0 1
0.854902 0.666667 0 1
0.854902 0.666667 0 1
0.854902 0.666667 0 1
0.854902 0.666667 0 1
0.854902 0.666667 0 1
0.854902 0.666667 0 1
0.854902 0.666667 0 1
0.854902 0.666667 0 1
0.854902 0.666667 0 1
0.854902 0.666667 0 1
0.854902 0.666667 0 1
0.854902 0.666667 0 1
0.854902 0.666667 0 1
0.854902 0.666667 0 1
0.854902 0.666667 0 1
0.854902 0.666667 0 1
0.854902 0.666667 0 1
0.854902 0.666667 0 1
0.854902 0.666667 0 1
0.854902 0.666667 0 1
0.854902 0.666667 0 1
0.854902 0.666667 0 1
0.854902 0.666667 0 1
0.854902 0.666667 0 1
0.854902 0.666667 0 1
0.854902 0.666667 0 1
0.854902 0.666667 0 1
0.854902 0.666667 0 1
0.854902 0.666667 0 1
0.854902 0.666667 0 1
0.854902 0.666667 0 1
0.854902 0.666667 0 1
0.854902 0.666667 0 1
0.854902 0.666667 0 1
0.854902 0.666667 0 1
0.854902 0.666667 0 1
0.854902 0.666667 0 1
0.854902 0.666667 0 1
0.854902 0.666667 0 1
0.854902 0.666667 0 1
0.854902 0.666667 0 1
0.854902 0.666667 0 1
0.854902 0.666667 0 1
0.854902 0.666667 0 1
0.854902 0.666667 0 1
0.854902 0.666667 0 1
0.854902 0.666667 0 1
0.854902 0.666667 0 1
0.854902 0.666667 0 1
0.854902 0.666667 0 1
0.854902 0.666667 0 1
0.854902 0.666667 0 1
0.854902 0.666667 0 1
0.854902 0.666667 0 1
0.854902 0.666667 0 1
0.854902 0.666667 0 1
0.854902 0.666667 0 1
0.854902 0.666667 0 1
0.854902 0.666667 0 1
0.854902 0.666667 0 1
0.854902 0.666667 0 1
0.854902 0.666667 0 1
0.854902 0.666667 0 1
0.854902 0.666667 0 1
0.854902 0.666667 0 1
0.854902 0.666667 0 1
0.854902 0.666667 0 1
0.854902 0.666667 0 1
0.854902 0.666667 0 1
0.854902 0.666667 0 1
0.854902 0.666667 0 1
0.854902 0.666667 0 1
0.854902 0.666667 0 1
0.854902 0.666667 0 1
0.854902 0.666667 0 1
0.854902 0.666667 0 1
0.854902 0.666667 0 1
0.854902 0.666667 0 1
0.854902 0.666667 0 1
0.854902 0.666667 0 1
0.854902 0.666667 0 1
0.854902 0.666667 0 1
0.854902 0.666667 0 1
0.854902 0.666667 0 1
0.854902 0.666667 0 1
0.854902 0.666667 0 1
0.854902 0.666667 0 1
0.854902 0.666667 0 1
0.854902 0.666667 0 1
0.854902 0.666667 0 1
0.854902 0.666667 0 1
0.854902 0.666667 0 1
0.854902 0.666667 0 1
0.854902 0.666667 0 1
0.854902 0.666667 0 1
0.854902 0.666667 0 1
0.854902 0.666667 0 1
0.854902 0.666667 0 1
0.854902 0.666667 0 1
0.854902 0.666667 0 1
0.854902 0.666667 0 1
0.854902 0.666667 0 1
0.854902 0.666667 0 1
0.854902 0.666667 0 1
0.854902 0.666667 0 1
0.854902 0.666667 0 1
0.854902 0.666667 0 1
0.854902 0.666667 0 1
0.854902 0.666667 0 1
0.854902 0.666667 0 1
0.854902 0.666667 0 1
0.854902 0.666667 0 1
0.854902 0.666667 0 1
0.854902 0.666667 0 1
0.854902 0.666667 0 1
0.854902 0.666667 0 1
0.854902 0.666667 0 1
0.854902 0.666667 0 1
0.854902 0.666667 0 1
0.854902 0.666667 0 1
0.854902 0.666667 0 1
0.854902 0.666667 0 1
0.854902 0.666667 0 1
0.854902 0.666667 0 1
0.854902 0.666667 0 1
0.854902 0.666667 0 1
0.854902 0.666667 0 1
0.854902 0.666667 0 1
0.854902 0.666667 0 1
0.854902 0.666667 0 1
0.854902 0.666667 0 1
0.854902 0.666667 0 1
0.854902 0.666667 0 1
0.854902 0.666667 0 1
0.854902 0.666667 0 1
0.854902 0.666667 0 1
0.854902 0.666667 0 1
0.854902 0.666667 0 1
0.854902 0.666667 0 1
0.854902 0.666667 0 1
0.854902 0.666667 0 1
0.854902 0.666667 0 1
0.854902 0.666667 0 1
0.854902 0.666667 0 1
0.854902 0.666667 0 1
0.854902 0.666667 0 1
0.854902 0.666667 0 1
0.854902 0.666667 0 1
0.854902 0.666667 0 1
0.854902 0.666667 0 1
0.854902 0.666667 0 1
0.854902 0.666667 0 1
0.854902 0.666667 0 1
0.854902 0.666667 0 1
0.854902 0.666667 0 1
0.854902 0.666667 0 1
0.854902 0.666667 0 1
0.854902 0.666667 0 1
0.854902 0.666667 0 1
0.854902 0.666667 0 1
0.854902 0.666667 0 1
0.854902 0.666667 0 1
0.854902 0.666667 0 1
0.854902 0.666667 0 1
0.854902 0.666667 0 1
0.854902 0.666667 0 1
0.854902 0.666667 0 1
0.854902 0.666667 0 1
0.854902 0.666667 0 1
0.854902 0.666667 0 1
0.854902 0.666667 0 1
0.854902 0.666667 0 1
0.854902 0.666667 0 1
0.854902 0.666667 0 1
0.854902 0.666667 0 1
0.854902 0.666667 0 1
0.854902 0.666667 0 1
0.854902 0.666667 0 1
0.854902 0.666667 0 1
0.854902 0.666667 0 1
0.854902 0.666667 0 1
0.854902 0.666667 0 1
0.854902 0.666667 0 1
0.854902 0.666667 0 1
0.854902 0.666667 0 1
0.854902 0.666667 0 1
0.854902 0.666667 0 1
0.854902 0.666667 0 1
0.854902 0.666667 0 1
0.854902 0.666667 0 1
0.854902 0.666667 0 1
0.854902 0.666667 0 1
0.854902 0.666667 0 1
0.854902 0.666667 0 1
0.854902 0.666667 0 1
0.854902 0.666667 0 1
0.854902 0.666667 0 1
0.854902 0.666667 0 1
0.854902 0.666667 0 1
0.854902 0.666667 0 1
0.854902 0.666667 0 1
0.854902 0.666667 0 1
0.854902 0.666667 0 1
0.854902 0.666667 0 1
0.854902 0.666667 0 1
0.854902 0.666667 0 1
0.854902 0.666667 0 1
0.854902 0.666667 0 1
0.854902 0.666667 0 1
0.854902 0.666667 0 1
0.854902 0.666667 0 1
0.854902 0.666667 0 1
0.854902 0.666667 0 1
0.854902 0.666667 0 1
0.854902 0.666667 0 1
0.854902 0.666667 0 1
0.854902 0.666667 0 1
0.854902 0.666667 0 1
0.854902 0.666667 0 1
0.854902 0.666667 0 1
0.854902 0.666667 0 1
0.854902 0.666667 0 1
0.854902 0.666667 0 1
0.854902 0.666667 0 1
0.854902 0.666667 0 1
0.854902 0.666667 0 1
0.854902 0.666667 0 1
0.854902 0.666667 0 1
0.854902 0.666667 0 1
0.854902 0.666667 0 1
0.854902 0.666667 0 1
0.854902 0.666667 0 1
0.854902 0.666667 0 1
0.854902 0.666667 0 1
0.854902 0.666667 0 1
0.854902 0.666667 0 1
0.854902 0.666667 0 1
0.854902 0.666667 0 1
0.854902 0.666667 0 1
0.854902 0.666667 0 1
0.854902 0.666667 0 1
0.854902 0.666667 0 1
0.854902 0.666667 0 1
0.854902 0.666667 0 1
0.854902 0.666667 0 1
0.854902 0.666667 0 1
0.854902 0.666667 0 1
0.854902 0.666667 0 1
0.854902 0.666667 0 1
0.854902 0.666667 0 1
0.854902 0.666667 0 1
0.854902 0.666667 0 1
0.854902 0.666667 0 1
0.854902 0.666667 0 1
0.854902 0.666667 0 1
0.854902 0.666667 0 1
0.854902 0.666667 0 1
0.854902 0.666667 0 1
0.854902 0.666667 0 1
0.854902 0.666667 0 1
0.854902 0.666667 0 1
0.854902 0.666667 0 1
0.854902 0.666667 0 1
0.854902 0.666667 0 1
0.854902 0.666667 0 1
0.854902 0.666667 0 1
0.854902 0.666667 0 1
0.854902 0.666667 0 1
0.854902 0.666667 0 1
0.854902 0.666667 0 1
0.854902 0.666667 0 1
0.854902 0.666667 0 1
0.854902 0.666667 0 1
0.854902 0.666667 0 1
0.854902 0.666667 0 1
0.854902 0.666667 0 1
0.854902 0.666667 0 1
0.854902 0.666667 0 1
0.854902 0.666667 0 1
0.854902 0.666667 0 1
0.854902 0.666667 0 1
0.854902 0.666667 0 1
0.854902 0.666667 0 1
0.854902 0.666667 0 1
0.854902 0.666667 0 1
0.854902 0.666667 0 1
0.854902 0.666667 0 1
0.854902 0.666667 0 1
0.854902 0.666667 0 1
0.854902 0.666667 0 1
0.854902 0.666667 0 1
0.854902 0.666667 0 1
0.854902 0.666667 0 1
0.854902 0.666667 0 1
0.854902 0.666667 0 1
0.854902 0.666667 0 1
0.854902 0.666667 0 1
0.854902 0.666667 0 1
0.854902 0.666667 0 1
0.854902 0.666667 0 1
0.854902 0.666667 0 1
0.854902 0.666667 0 1
0.854902 0.666667 0 1
0.854902 0.666667 0 1
0.854902 0.666667 0 1
0.854902 0.666667 0 1
0.854902 0.666667 0 1
0.854902 0.666667 0 1
0.854902 0.666667 0 1
0.854902 0.666667 0 1
0.854902 0.666667 0 1
0.854902 0.666667 0 1
0.854902 0.666667 0 1
0.854902 0.666667 0 1
0.854902 0.666667 0 1
0.854902 0.666667 0 1
0.854902 0.666667 0 1
0.854902 0.666667 0 1
0.854902 0.666667 0 1
0.854902 0.666667 0 1
0.854902 0.666667 0 1
0.854902 0.666667 0 1
0.854902 0.666667 0 1
0.854902 0.666667 0 1
0.854902 0.666667 0 1
0.854902 0.666667 0 1
0.854902 0.666667 0 1
0.854902 0.666667 0 1
0.854902 0.666667 0 1
0.854902 0.666667 0 1
0.854902 0.666667 0 1
0.854902 0.666667 0 1
0.854902 0.666667 0 1
0.854902 0.666667 0 1
0.854902 0.666667 0 1
0.854902 0.666667 0 1
0.854902 0.666667 0 1
0.854902 0.666667 0 1
0.854902 0.666667 0 1
0.854902 0.666667 0 1
0.854902 0.666667 0 1
0.854902 0.666667 0 1
0.854902 0.666667 0 1
0.854902 0.666667 0 1
0.854902 0.666667 0 1
0.854902 0.666667 0 1
0.854902 0.666667 0 1
0.854902 0.666667 0 1
0.854902 0.666667 0 1
0.854902 0.666667 0 1
0.854902 0.666667 0 1
0.854902 0.666667 0 1
0.854902 0.666667 0 1
0.854902 0.666667 0 1
0.854902 0.666667 0 1
0.854902 0.666667 0 1
0.854902 0.666667 0 1
0.854902 0.666667 0 1
0.854902 0.666667 0 1
0.854902 0.666667 0 1
0.854902 0.666667 0 1
0.854902 0.666667 0 1
0.854902 0.666667 0 1
0.854902 0.666667 0 1