# vtk DataFile Version 3.0
Gocad TSurf to VTK
ASCII
DATASET POLYDATA
POINTS 2399 float
21507064.859 4564843.246 -207.362
21507031.375 4564855.391 -207.866
21507059.188 4564883.813 -471.575
21507036.859 4564891.906 -471.911
21507081.500 4564875.719 -471.239
21507070.547 4564802.680 56.850
21507025.906 4564818.871 56.178
21507115.188 4564786.492 57.522
21507098.344 4564831.105 -206.859
21507159.844 4564770.301 58.194
21507131.844 4564818.961 -206.354
21507103.828 4564867.625 -470.903
21507204.484 4564754.109 58.866
21507165.313 4564806.820 -205.851
21507126.156 4564859.527 -470.567
21507249.125 4564737.918 59.538
21507198.797 4564794.676 -205.347
21507148.469 4564851.430 -470.231
21507293.781 4564721.727 60.210
21507232.281 4564782.531 -204.843
21507170.797 4564843.336 -469.895
21507338.422 4564705.535 60.882
21507265.766 4564770.387 -204.339
21507193.125 4564835.242 -469.559
21507383.078 4564689.344 61.554
21507299.266 4564758.242 -203.835
21507215.438 4564827.145 -469.223
21507427.719 4564673.152 62.225
21507332.750 4564746.102 -203.331
21507237.766 4564819.047 -468.887
21507467.813 4564646.234 62.812
21507362.813 4564725.914 -202.891
21507257.813 4564805.590 -468.594
21507507.063 4564687.211 -202.891
21507546.313 4564728.188 -468.594
21507507.922 4564619.320 63.322
21507537.156 4564667.027 -202.509
21507548.016 4564592.402 63.831
21507567.219 4564646.836 -202.127
21507586.422 4564701.273 -468.085
21507588.109 4564565.484 64.340
21507597.281 4564626.648 -201.745
21507606.469 4564687.813 -467.830
21507628.219 4564538.570 64.849
21507627.375 4564606.465 -201.363
21507626.531 4564674.359 -467.576
21507668.313 4564511.652 65.358
21507657.438 4564586.273 -200.982
21507646.563 4564660.898 -467.321
21507708.422 4564484.738 65.867
21507687.531 4564566.090 -200.600
21507666.625 4564647.441 -467.067
21507748.516 4564457.820 66.376
21507717.594 4564545.902 -200.218
21507686.672 4564633.984 -466.812
21507788.609 4564430.902 66.885
21507747.656 4564525.711 -199.836
21507706.719 4564620.523 -466.557
21507828.719 4564403.988 67.394
21507777.750 4564505.527 -199.454
21507726.781 4564607.066 -466.303
21507868.813 4564377.070 67.903
21507807.813 4564485.340 -199.073
21507746.813 4564593.609 -466.048
21507923.969 4564414.910 -199.073
21507979.125 4564452.750 -466.048
21507908.906 4564350.152 68.412
21507954.031 4564394.723 -198.691
21507949.016 4564323.238 68.921
21507984.125 4564374.539 -198.309
21507999.172 4564439.293 -465.794
21507989.109 4564296.320 69.430
21508014.188 4564354.348 -197.927
21508039.281 4564412.375 -465.285
21508025.750 4564263.367 69.766
21508041.672 4564329.633 -197.676
21508057.594 4564395.898 -465.117
21508062.391 4564230.414 69.466
21508069.156 4564304.918 -197.900
21508075.906 4564379.422 -465.267
21508099.031 4564197.457 69.167
21508096.625 4564280.203 -198.125
21508094.234 4564362.945 -465.416
21508135.672 4564164.504 68.868
21508124.109 4564255.484 -198.349
21508112.563 4564346.469 -465.566
21508172.313 4564131.551 68.569
21508151.594 4564230.773 -198.573
21508130.875 4564329.992 -465.716
21508208.953 4564098.598 68.270
21508179.078 4564206.055 -198.798
21508149.188 4564313.516 -465.865
21508245.578 4564065.641 67.971
21508206.547 4564181.340 -199.022
21508167.500 4564297.039 -466.015
21508282.219 4564032.688 67.672
21508234.031 4564156.625 -199.246
21508185.828 4564280.563 -466.164
21508318.859 4563999.734 67.372
21508261.500 4564131.910 -199.471
21508204.156 4564264.086 -466.314
21508355.500 4563966.781 67.073
21508288.984 4564107.195 -199.695
21508222.469 4564247.609 -466.463
21508443.906 4563966.305 -199.695
21508532.313 4563965.832 -466.463
21508392.141 4563933.824 66.774
21508471.391 4563941.590 -199.919
21508428.781 4563900.871 66.475
21508498.875 4563916.875 -200.144
21508550.625 4563949.352 -466.613
21508465.422 4563867.918 66.176
21508526.344 4563892.160 -200.368
21508568.953 4563932.875 -466.763
21508498.328 4563833.727 65.895
21508551.031 4563866.516 -200.578
21508587.281 4563916.398 -466.912
21508531.234 4563799.535 65.615
21508575.703 4563840.871 -200.789
21508603.719 4563899.305 -467.052
21508564.141 4563765.344 65.335
21508600.391 4563815.227 -200.999
21508636.625 4563865.113 -467.333
21508597.047 4563731.148 65.054
21508625.063 4563789.582 -201.209
21508653.094 4563848.016 -467.473
21508629.953 4563696.957 64.774
21508649.750 4563763.938 -201.419
21508669.531 4563830.922 -467.613
21508662.859 4563662.766 64.494
21508674.422 4563738.297 -201.630
21508686.000 4563813.824 -467.753
21508695.766 4563628.574 64.048
21508699.109 4563712.652 -201.964
21508702.438 4563796.727 -467.976
21508728.672 4563594.383 63.535
21508723.781 4563687.008 -202.348
21508718.906 4563779.633 -468.232
21508761.578 4563560.191 63.023
21508748.469 4563661.363 -202.733
21508735.344 4563762.539 -468.489
21508794.484 4563526.000 62.510
21508773.141 4563635.719 -203.117
21508751.813 4563745.441 -468.745
21508827.391 4563491.809 61.998
21508797.828 4563610.078 -203.502
21508768.250 4563728.344 -469.001
21508860.297 4563457.617 61.485
21508822.500 4563584.434 -203.886
21508784.719 4563711.250 -469.258
21508893.203 4563423.422 60.972
21508847.188 4563558.789 -204.271
21508801.156 4563694.152 -469.514
21508926.109 4563389.230 60.460
21508871.859 4563533.145 -204.655
21508817.625 4563677.055 -469.770
21509019.813 4563339.395 -204.655
21509113.516 4563289.555 -469.770
21508959.016 4563355.039 59.947
21509044.500 4563313.750 -205.040
21508991.922 4563320.848 59.435
21509069.172 4563288.105 -205.424
21509129.969 4563272.461 -470.026
21509017.438 4563282.422 58.951
21509088.313 4563259.289 -205.786
21509146.422 4563255.367 -470.283
21509042.938 4563244.000 58.469
21509107.438 4563230.469 -206.149
21509159.188 4563236.152 -470.524
21509068.438 4563205.574 57.986
21509126.563 4563201.652 -206.511
21509171.938 4563216.941 -470.766
21509093.953 4563167.148 57.503
21509145.688 4563172.832 -206.873
21509184.688 4563197.727 -471.007
21509119.469 4563128.727 57.019
21509164.828 4563144.016 -207.235
21509197.438 4563178.516 -471.249
21509144.969 4563090.301 56.537
21509183.953 4563115.195 -207.598
21509210.188 4563159.305 -471.490
21509170.469 4563051.875 56.784
21509203.078 4563086.375 -207.412
21509235.688 4563120.879 -471.608
21509195.984 4563013.453 57.226
21509222.219 4563057.563 -207.080
21509248.453 4563101.668 -471.387
21509221.500 4562975.027 57.669
21509241.359 4563028.742 -206.749
21509261.219 4563082.453 -471.166
21509247.000 4562936.602 58.111
21509260.484 4562999.922 -206.417
21509273.969 4563063.242 -470.945
21509272.500 4562898.180 58.690
21509279.609 4562971.105 -205.982
21509286.719 4563044.031 -470.655
21509298.016 4562859.754 59.343
21509298.750 4562942.285 -205.492
21509299.469 4563024.820 -470.328
21509344.563 4562850.684 -205.492
21509391.125 4562841.617 -470.328
21509316.672 4562817.156 60.040
21509358.563 4562818.734 -204.970
21509335.313 4562774.555 60.737
21509372.547 4562786.785 -204.448
21509400.453 4562820.316 -469.980
21509353.969 4562731.957 61.433
21509386.531 4562754.836 -203.925
21509419.094 4562777.719 -469.283
21509372.609 4562689.359 62.130
21509400.516 4562722.891 -203.403
21509428.422 4562756.418 -468.935
21509391.266 4562646.762 62.826
21509414.500 4562690.941 -202.880
21509437.750 4562735.117 -468.587
21509428.672 4562613.422 -202.880
21509409.922 4562604.160 63.523
21509442.656 4562581.469 -202.358
21509441.844 4562601.680 -296.447
21509428.563 4562561.563 64.220
21509452.953 4562557.949 -201.973
21509447.906 4562577.836 -244.934
21509454.906 4562550.270 -185.379
21509447.219 4562518.965 64.916
21509455.797 4562546.773 -177.829
21509458.703 4562535.320 -153.089
21509463.094 4562518.020 -115.714
21509465.859 4562476.363 65.613
21509465.828 4562507.250 -92.451
21509468.313 4562497.520 -71.427
21509472.813 4562479.793 -33.132
21509468.313 4562497.523 -71.440
21509484.516 4562433.766 66.310
21509447.047 4562581.207 -252.221
21509442.266 4562608.676 -310.945
21509442.672 4562615.293 -324.661
21509443.188 4562650.313 -383.281
21509443.922 4562700.219 -466.823
21509443.938 4562701.277 -468.587
21509444.594 4562748.117 -546.762
21509442.438 4562761.078 -568.925
21509441.672 4562765.723 -576.868
21509440.750 4562771.234 -586.293
21509439.656 4562777.887 -597.668
21509438.625 4562784.129 -608.339
21509438.141 4562787.016 -613.270
21509437.531 4562790.672 -619.523
21509436.313 4562798.070 -632.170
21509436.000 4562800.004 -635.480
21509409.781 4562799.016 -469.632
21509434.797 4562807.234 -647.841
21509433.844 4562812.996 -657.692
21509433.406 4562815.621 -662.176
21509433.234 4562816.680 -663.989
21509432.438 4562821.523 -672.271
21509431.578 4562826.676 -681.081
21509430.969 4562830.340 -687.346
21509430.609 4562832.496 -691.032
21509430.375 4562833.973 -693.553
21509428.781 4562840.977 -705.625
21509427.469 4562846.758 -715.591
21509300.188 4563107.352 -735.164
21509427.391 4562847.113 -716.204
21509427.375 4562847.188 -716.332
21509425.953 4562856.012 -735.164
21509415.875 4562918.281 -868.084
21509415.219 4562920.926 -872.280
21509411.578 4562935.531 -895.461
21509300.922 4563189.883 -1000.000
21509293.813 4563116.957 -735.327
21509395.219 4563001.398 -1000.000
21509380.188 4563069.230 -1107.643
21509379.766 4563071.125 -1110.652
21509368.688 4563121.152 -1190.031
21509358.313 4563167.953 -1264.299
21509348.781 4563210.906 -1332.457
21509341.031 4563241.523 -1375.495
21509334.516 4563267.246 -1411.655
21509307.641 4563328.551 -1498.884
21509243.047 4563414.242 -1500.000
21508709.125 4563964.883 -1000.000
21509307.297 4563329.336 -1500.000
21509293.656 4563387.145 -1634.519
21509291.250 4563401.648 -1672.824
21509185.156 4563638.598 -2000.000
21508799.188 4563995.492 -1500.000
21509273.844 4563506.699 -1950.245
21509270.719 4563525.539 -2000.000
21509242.391 4563598.508 -2120.161
21509242.172 4563599.074 -2121.095
21509171.703 4563780.590 -2420.007
21509127.281 4563862.953 -2500.000
21508889.266 4564026.098 -2000.000
21509169.391 4563794.309 -2456.029
21509166.563 4563811.055 -2500.000
[...]
POINT_DATA 2399
COLOR_SCALARS GocadColor 4
0.25 0.25 0.25 1
0.25 0.25 0.25 1
0.25 0.25 0.25 1
0.25 0.25 0.25 1
0.25 0.25 0.25 1
0.25 0.25 0.25 1
0.25 0.25 0.25 1
0.25 0.25 0.25 1
0.25 0.25 0.25 1
0.25 0.25 0.25 1
0.25 0.25 0.25 1
0.25 0.25 0.25 1
0.25 0.25 0.25 1
0.25 0.25 0.25 1
0.25 0.25 0.25 1
0.25 0.25 0.25 1
0.25 0.25 0.25 1
0.25 0.25 0.25 1
0.25 0.25 0.25 1
0.25 0.25 0.25 1
0.25 0.25 0.25 1
0.25 0.25 0.25 1
0.25 0.25 0.25 1
0.25 0.25 0.25 1
0.25 0.25 0.25 1
0.25 0.25 0.25 1
0.25 0.25 0.25 1
0.25 0.25 0.25 1
0.25 0.25 0.25 1
0.25 0.25 0.25 1
0.25 0.25 0.25 1
0.25 0.25 0.25 1
0.25 0.25 0.25 1
0.25 0.25 0.25 1
0.25 0.25 0.25 1
0.25 0.25 0.25 1
0.25 0.25 0.25 1
0.25 0.25 0.25 1
0.25 0.25 0.25 1
0.25 0.25 0.25 1
0.25 0.25 0.25 1
0.25 0.25 0.25 1
0.25 0.25 0.25 1
0.25 0.25 0.25 1
0.25 0.25 0.25 1
0.25 0.25 0.25 1
0.25 0.25 0.25 1
0.25 0.25 0.25 1
0.25 0.25 0.25 1
0.25 0.25 0.25 1
0.25 0.25 0.25 1
0.25 0.25 0.25 1
0.25 0.25 0.25 1
0.25 0.25 0.25 1
0.25 0.25 0.25 1
0.25 0.25 0.25 1
0.25 0.25 0.25 1
0.25 0.25 0.25 1
0.25 0.25 0.25 1
0.25 0.25 0.25 1
0.25 0.25 0.25 1
0.25 0.25 0.25 1
0.25 0.25 0.25 1
0.25 0.25 0.25 1
0.25 0.25 0.25 1
0.25 0.25 0.25 1
0.25 0.25 0.25 1
0.25 0.25 0.25 1
0.25 0.25 0.25 1
0.25 0.25 0.25 1
0.25 0.25 0.25 1
0.25 0.25 0.25 1
0.25 0.25 0.25 1
0.25 0.25 0.25 1
0.25 0.25 0.25 1
0.25 0.25 0.25 1
0.25 0.25 0.25 1
0.25 0.25 0.25 1
0.25 0.25 0.25 1
0.25 0.25 0.25 1
0.25 0.25 0.25 1
0.25 0.25 0.25 1
0.25 0.25 0.25 1
0.25 0.25 0.25 1
0.25 0.25 0.25 1
0.25 0.25 0.25 1
0.25 0.25 0.25 1
0.25 0.25 0.25 1
0.25 0.25 0.25 1
0.25 0.25 0.25 1
0.25 0.25 0.25 1
0.25 0.25 0.25 1
0.25 0.25 0.25 1
0.25 0.25 0.25 1
0.25 0.25 0.25 1
0.25 0.25 0.25 1
0.25 0.25 0.25 1
0.25 0.25 0.25 1
0.25 0.25 0.25 1
0.25 0.25 0.25 1
0.25 0.25 0.25 1
0.25 0.25 0.25 1
0.25 0.25 0.25 1
0.25 0.25 0.25 1
0.25 0.25 0.25 1
0.25 0.25 0.25 1
0.25 0.25 0.25 1
0.25 0.25 0.25 1
0.25 0.25 0.25 1
0.25 0.25 0.25 1
0.25 0.25 0.25 1
0.25 0.25 0.25 1
0.25 0.25 0.25 1
0.25 0.25 0.25 1
0.25 0.25 0.25 1
0.25 0.25 0.25 1
0.25 0.25 0.25 1
0.25 0.25 0.25 1
0.25 0.25 0.25 1
0.25 0.25 0.25 1
0.25 0.25 0.25 1
0.25 0.25 0.25 1
0.25 0.25 0.25 1
0.25 0.25 0.25 1
0.25 0.25 0.25 1
0.25 0.25 0.25 1
0.25 0.25 0.25 1
0.25 0.25 0.25 1
0.25 0.25 0.25 1
0.25 0.25 0.25 1
0.25 0.25 0.25 1
0.25 0.25 0.25 1
0.25 0.25 0.25 1
0.25 0.25 0.25 1
0.25 0.25 0.25 1
0.25 0.25 0.25 1
0.25 0.25 0.25 1
0.25 0.25 0.25 1
0.25 0.25 0.25 1
0.25 0.25 0.25 1
0.25 0.25 0.25 1
0.25 0.25 0.25 1
0.25 0.25 0.25 1
0.25 0.25 0.25 1
0.25 0.25 0.25 1
0.25 0.25 0.25 1
0.25 0.25 0.25 1
0.25 0.25 0.25 1
0.25 0.25 0.25 1
0.25 0.25 0.25 1
0.25 0.25 0.25 1
0.25 0.25 0.25 1
0.25 0.25 0.25 1
0.25 0.25 0.25 1
0.25 0.25 0.25 1
0.25 0.25 0.25 1
0.25 0.25 0.25 1
0.25 0.25 0.25 1
0.25 0.25 0.25 1
0.25 0.25 0.25 1
0.25 0.25 0.25 1
0.25 0.25 0.25 1
0.25 0.25 0.25 1
0.25 0.25 0.25 1
0.25 0.25 0.25 1
0.25 0.25 0.25 1
0.25 0.25 0.25 1
0.25 0.25 0.25 1
0.25 0.25 0.25 1
0.25 0.25 0.25 1
0.25 0.25 0.25 1
0.25 0.25 0.25 1
0.25 0.25 0.25 1
0.25 0.25 0.25 1
0.25 0.25 0.25 1
0.25 0.25 0.25 1
0.25 0.25 0.25 1
0.25 0.25 0.25 1
0.25 0.25 0.25 1
0.25 0.25 0.25 1
0.25 0.25 0.25 1
0.25 0.25 0.25 1
0.25 0.25 0.25 1
0.25 0.25 0.25 1
0.25 0.25 0.25 1
0.25 0.25 0.25 1
0.25 0.25 0.25 1
0.25 0.25 0.25 1
0.25 0.25 0.25 1
0.25 0.25 0.25 1
0.25 0.25 0.25 1
0.25 0.25 0.25 1
0.25 0.25 0.25 1
0.25 0.25 0.25 1
0.25 0.25 0.25 1
0.25 0.25 0.25 1
0.25 0.25 0.25 1
0.25 0.25 0.25 1
0.25 0.25 0.25 1
0.25 0.25 0.25 1
0.25 0.25 0.25 1
0.25 0.25 0.25 1
0.25 0.25 0.25 1
0.25 0.25 0.25 1
0.25 0.25 0.25 1
0.25 0.25 0.25 1
0.25 0.25 0.25 1
0.25 0.25 0.25 1
0.25 0.25 0.25 1
0.25 0.25 0.25 1
0.25 0.25 0.25 1
0.25 0.25 0.25 1
0.25 0.25 0.25 1
0.25 0.25 0.25 1
0.25 0.25 0.25 1
0.25 0.25 0.25 1
0.25 0.25 0.25 1
0.25 0.25 0.25 1
0.25 0.25 0.25 1
0.25 0.25 0.25 1
0.25 0.25 0.25 1
0.25 0.25 0.25 1
0.25 0.25 0.25 1
0.25 0.25 0.25 1
0.25 0.25 0.25 1
0.25 0.25 0.25 1
0.25 0.25 0.25 1
0.25 0.25 0.25 1
0.25 0.25 0.25 1
0.25 0.25 0.25 1
0.25 0.25 0.25 1
0.25 0.25 0.25 1
0.25 0.25 0.25 1
0.25 0.25 0.25 1
0.25 0.25 0.25 1
0.25 0.25 0.25 1
0.25 0.25 0.25 1
0.25 0.25 0.25 1
0.25 0.25 0.25 1
0.25 0.25 0.25 1
0.25 0.25 0.25 1
0.25 0.25 0.25 1
0.25 0.25 0.25 1
0.25 0.25 0.25 1
0.25 0.25 0.25 1
0.25 0.25 0.25 1
0.25 0.25 0.25 1
0.25 0.25 0.25 1
0.25 0.25 0.25 1
0.25 0.25 0.25 1
0.25 0.25 0.25 1
0.25 0.25 0.25 1
0.25 0.25 0.25 1
0.25 0.25 0.25 1
0.25 0.25 0.25 1
0.25 0.25 0.25 1
0.25 0.25 0.25 1
0.25 0.25 0.25 1
0.25 0.25 0.25 1
0.25 0.25 0.25 1
0.25 0.25 0.25 1
0.25 0.25 0.25 1
0.25 0.25 0.25 1
0.25 0.25 0.25 1
0.25 0.25 0.25 1
0.25 0.25 0.25 1
0.25 0.25 0.25 1
0.25 0.25 0.25 1
0.25 0.25 0.25 1
0.25 0.25 0.25 1
0.25 0.25 0.25 1
0.25 0.25 0.25 1
0.25 0.25 0.25 1
0.25 0.25 0.25 1
0.25 0.25 0.25 1
0.25 0.25 0.25 1
0.25 0.25 0.25 1
0.25 0.25 0.25 1
0.25 0.25 0.25 1
0.25 0.25 0.25 1
0.25 0.25 0.25 1
0.25 0.25 0.25 1
0.25 0.25 0.25 1
0.25 0.25 0.25 1
0.25 0.25 0.25 1
0.25 0.25 0.25 1
0.25 0.25 0.25 1
0.25 0.25 0.25 1
0.25 0.25 0.25 1
0.25 0.25 0.25 1
0.25 0.25 0.25 1
0.25 0.25 0.25 1
0.25 0.25 0.25 1
0.25 0.25 0.25 1
0.25 0.25 0.25 1
0.25 0.25 0.25 1
0.25 0.25 0.25 1
0.25 0.25 0.25 1
0.25 0.25 0.25 1
0.25 0.25 0.25 1
0.25 0.25 0.25 1
0.25 0.25 0.25 1
0.25 0.25 0.25 1
0.25 0.25 0.25 1
0.25 0.25 0.25 1
0.25 0.25 0.25 1
0.25 0.25 0.25 1
0.25 0.25 0.25 1
0.25 0.25 0.25 1
0.25 0.25 0.25 1
0.25 0.25 0.25 1
0.25 0.25 0.25 1
0.25 0.25 0.25 1
0.25 0.25 0.25 1
0.25 0.25 0.25 1
0.25 0.25 0.25 1
0.25 0.25 0.25 1
0.25 0.25 0.25 1
0.25 0.25 0.25 1
0.25 0.25 0.25 1
0.25 0.25 0.25 1
0.25 0.25 0.25 1
0.25 0.25 0.25 1
0.25 0.25 0.25 1
0.25 0.25 0.25 1
0.25 0.25 0.25 1
0.25 0.25 0.25 1
0.25 0.25 0.25 1
0.25 0.25 0.25 1
0.25 0.25 0.25 1
0.25 0.25 0.25 1
0.25 0.25 0.25 1
0.25 0.25 0.25 1
0.25 0.25 0.25 1
0.25 0.25 0.25 1
0.25 0.25 0.25 1
0.25 0.25 0.25 1
0.25 0.25 0.25 1
0.25 0.25 0.25 1
0.25 0.25 0.25 1
0.25 0.25 0.25 1
0.25 0.25 0.25 1
0.25 0.25 0.25 1
0.25 0.25 0.25 1
0.25 0.25 0.25 1
0.25 0.25 0.25 1
0.25 0.25 0.25 1
0.25 0.25 0.25 1
0.25 0.25 0.25 1
0.25 0.25 0.25 1
0.25 0.25 0.25 1
0.25 0.25 0.25 1
0.25 0.25 0.25 1
0.25 0.25 0.25 1
0.25 0.25 0.25 1
0.25 0.25 0.25 1
0.25 0.25 0.25 1
0.25 0.25 0.25 1
0.25 0.25 0.25 1
0.25 0.25 0.25 1
0.25 0.25 0.25 1
0.25 0.25 0.25 1
0.25 0.25 0.25 1
0.25 0.25 0.25 1
0.25 0.25 0.25 1
0.25 0.25 0.25 1
0.25 0.25 0.25 1
0.25 0.25 0.25 1
0.25 0.25 0.25 1
0.25 0.25 0.25 1
0.25 0.25 0.25 1
0.25 0.25 0.25 1
0.25 0.25 0.25 1
0.25 0.25 0.25 1
0.25 0.25 0.25 1
0.25 0.25 0.25 1
0.25 0.25 0.25 1
0.25 0.25 0.25 1
0.25 0.25 0.25 1
0.25 0.25 0.25 1
0.25 0.25 0.25 1
0.25 0.25 0.25 1
0.25 0.25 0.25 1
0.25 0.25 0.25 1
0.25 0.25 0.25 1
0.25 0.25 0.25 1
0.25 0.25 0.25 1
0.25 0.25 0.25 1
0.25 0.25 0.25 1
0.25 0.25 0.25 1
0.25 0.25 0.25 1
0.25 0.25 0.25 1
0.25 0.25 0.25 1
0.25 0.25 0.25 1
0.25 0.25 0.25 1
0.25 0.25 0.25 1
0.25 0.25 0.25 1
0.25 0.25 0.25 1
0.25 0.25 0.25 1
0.25 0.25 0.25 1
0.25 0.25 0.25 1
0.25 0.25 0.25 1
0.25 0.25 0.25 1
0.25 0.25 0.25 1
0.25 0.25 0.25 1
0.25 0.25 0.25 1
0.25 0.25 0.25 1
0.25 0.25 0.25 1
0.25 0.25 0.25 1
0.25 0.25 0.25 1
0.25 0.25 0.25 1
0.25 0.25 0.25 1
0.25 0.25 0.25 1
0.25 0.25 0.25 1
0.25 0.25 0.25 1
0.25 0.25 0.25 1
0.25 0.25 0.25 1
0.25 0.25 0.25 1
0.25 0.25 0.25 1
0.25 0.25 0.25 1
0.25 0.25 0.25 1
0.25 0.25 0.25 1
0.25 0.25 0.25 1
0.25 0.25 0.25 1
0.25 0.25 0.25 1
0.25 0.25 0.25 1
0.25 0.25 0.25 1
0.25 0.25 0.25 1
0.25 0.25 0.25 1
0.25 0.25 0.25 1
0.25 0.25 0.25 1
0.25 0.25 0.25 1
0.25 0.25 0.25 1
0.25 0.25 0.25 1
0.25 0.25 0.25 1
0.25 0.25 0.25 1
0.25 0.25 0.25 1
0.25 0.25 0.25 1
0.25 0.25 0.25 1
0.25 0.25 0.25 1
0.25 0.25 0.25 1
0.25 0.25 0.25 1
0.25 0.25 0.25 1
0.25 0.25 0.25 1
0.25 0.25 0.25 1
0.25 0.25 0.25 1
0.25 0.25 0.25 1
0.25 0.25 0.25 1
0.25 0.25 0.25 1
0.25 0.25 0.25 1
0.25 0.25 0.25 1
0.25 0.25 0.25 1
0.25 0.25 0.25 1
0.25 0.25 0.25 1
0.25 0.25 0.25 1
0.25 0.25 0.25 1
0.25 0.25 0.25 1
0.25 0.25 0.25 1
0.25 0.25 0.25 1
0.25 0.25 0.25 1
0.25 0.25 0.25 1
0.25 0.25 0.25 1
0.25 0.25 0.25 1
0.25 0.25 0.25 1
0.25 0.25 0.25 1
0.25 0.25 0.25 1
0.25 0.25 0.25 1
0.25 0.25 0.25 1
0.25 0.25 0.25 1
0.25 0.25 0.25 1
0.25 0.25 0.25 1
0.25 0.25 0.25 1
0.25 0.25 0.25 1
0.25 0.25 0.25 1
0.25 0.25 0.25 1
0.25 0.25 0.25 1
0.25 0.25 0.25 1
0.25 0.25 0.25 1
0.25 0.25 0.25 1
0.25 0.25 0.25 1
0.25 0.25 0.25 1
0.25 0.25 0.25 1
0.25 0.25 0.25 1
0.25 0.25 0.25 1
0.25 0.25 0.25 1
0.25 0.25 0.25 1
0.25 0.25 0.25 1
0.25 0.25 0.25 1
0.25 0.25 0.25 1
0.25 0.25 0.25 1
0.25 0.25 0.25 1
0.25 0.25 0.25 1
0.25 0.25 0.25 1
0.25 0.25 0.25 1
0.25 0.25 0.25 1
0.25 0.25 0.25 1
0.25 0.25 0.25 1
0.25 0.25 0.25 1
0.25 0.25 0.25 1
0.25 0.25 0.25 1
0.25 0.25 0.25 1
0.25 0.25 0.25 1
0.25 0.25 0.25 1
0.25 0.25 0.25 1
0.25 0.25 0.25 1
0.25 0.25 0.25 1
0.25 0.25 0.25 1
0.25 0.25 0.25 1
0.25 0.25 0.25 1
0.25 0.25 0.25 1
0.25 0.25 0.25 1
0.25 0.25 0.25 1
0.25 0.25 0.25 1
0.25 0.25 0.25 1
0.25 0.25 0.25 1
0.25 0.25 0.25 1
0.25 0.25 0.25 1
0.25 0.25 0.25 1
0.25 0.25 0.25 1
0.25 0.25 0.25 1
0.25 0.25 0.25 1
0.25 0.25 0.25 1
0.25 0.25 0.25 1
0.25 0.25 0.25 1
0.25 0.25 0.25 1
0.25 0.25 0.25 1
0.25 0.25 0.25 1
0.25 0.25 0.25 1
0.25 0.25 0.25 1
0.25 0.25 0.25 1
0.25 0.25 0.25 1
0.25 0.25 0.25 1
0.25 0.25 0.25 1
0.25 0.25 0.25 1
0.25 0.25 0.25 1
0.25 0.25 0.25 1
0.25 0.25 0.25 1
0.25 0.25 0.25 1
0.25 0.25 0.25 1
0.25 0.25 0.25 1
0.25 0.25 0.25 1
0.25 0.25 0.25 1
0.25 0.25 0.25 1
0.25 0.25 0.25 1
0.25 0.25 0.25 1
0.25 0.25 0.25 1
0.25 0.25 0.25 1
0.25 0.25 0.25 1
0.25 0.25 0.25 1
0.25 0.25 0.25 1
0.25 0.25 0.25 1
0.25 0.25 0.25 1
0.25 0.25 0.25 1
0.25 0.25 0.25 1
0.25 0.25 0.25 1
0.25 0.25 0.25 1
0.25 0.25 0.25 1
0.25 0.25 0.25 1
0.25 0.25 0.25 1
0.25 0.25 0.25 1
0.25 0.25 0.25 1
0.25 0.25 0.25 1
0.25 0.25 0.25 1
0.25 0.25 0.25 1
0.25 0.25 0.25 1
0.25 0.25 0.25 1
0.25 0.25 0.25 1
0.25 0.25 0.25 1
0.25 0.25 0.25 1
0.25 0.25 0.25 1
0.25 0.25 0.25 1
0.25 0.25 0.25 1
0.25 0.25 0.25 1
0.25 0.25 0.25 1
0.25 0.25 0.25 1
0.25 0.25 0.25 1
0.25 0.25 0.25 1
0.25 0.25 0.25 1
0.25 0.25 0.25 1
0.25 0.25 0.25 1
0.25 0.25 0.25 1
0.25 0.25 0.25 1
0.25 0.25 0.25 1
0.25 0.25 0.25 1
0.25 0.25 0.25 1
0.25 0.25 0.25 1
0.25 0.25 0.25 1
0.25 0.25 0.25 1
0.25 0.25 0.25 1
0.25 0.25 0.25 1
0.25 0.25 0.25 1
0.25 0.25 0.25 1
0.25 0.25 0.25 1
0.25 0.25 0.25 1
0.25 0.25 0.25 1
0.25 0.25 0.25 1
0.25 0.25 0.25 1
0.25 0.25 0.25 1
0.25 0.25 0.25 1
0.25 0.25 0.25 1
0.25 0.25 0.25 1
0.25 0.25 0.25 1
0.25 0.25 0.25 1
0.25 0.25 0.25 1
0.25 0.25 0.25 1
0.25 0.25 0.25 1
0.25 0.25 0.25 1
0.25 0.25 0.25 1
0.25 0.25 0.25 1
0.25 0.25 0.25 1
0.25 0.25 0.25 1
0.25 0.25 0.25 1
0.25 0.25 0.25 1
0.25 0.25 0.25 1
0.25 0.25 0.25 1
0.25 0.25 0.25 1
0.25 0.25 0.25 1
0.25 0.25 0.25 1
0.25 0.25 0.25 1
0.25 0.25 0.25 1
0.25 0.25 0.25 1
0.25 0.25 0.25 1
0.25 0.25 0.25 1
0.25 0.25 0.25 1
0.25 0.25 0.25 1
0.25 0.25 0.25 1
0.25 0.25 0.25 1
0.25 0.25 0.25 1
0.25 0.25 0.25 1
0.25 0.25 0.25 1
0.25 0.25 0.25 1
0.25 0.25 0.25 1
0.25 0.25 0.25 1
0.25 0.25 0.25 1
0.25 0.25 0.25 1
0.25 0.25 0.25 1
0.25 0.25 0.25 1
0.25 0.25 0.25 1
0.25 0.25 0.25 1
0.25 0.25 0.25 1
0.25 0.25 0.25 1
0.25 0.25 0.25 1
0.25 0.25 0.25 1
0.25 0.25 0.25 1
0.25 0.25 0.25 1
0.25 0.25 0.25 1
0.25 0.25 0.25 1
0.25 0.25 0.25 1
0.25 0.25 0.25 1
0.25 0.25 0.25 1
0.25 0.25 0.25 1
0.25 0.25 0.25 1
0.25 0.25 0.25 1
0.25 0.25 0.25 1
0.25 0.25 0.25 1
0.25 0.25 0.25 1
0.25 0.25 0.25 1
0.25 0.25 0.25 1
0.25 0.25 0.25 1
0.25 0.25 0.25 1
0.25 0.25 0.25 1
0.25 0.25 0.25 1
0.25 0.25 0.25 1
0.25 0.25 0.25 1
0.25 0.25 0.25 1
0.25 0.25 0.25 1
0.25 0.25 0.25 1
0.25 0.25 0.25 1
0.25 0.25 0.25 1
0.25 0.25 0.25 1
0.25 0.25 0.25 1
0.25 0.25 0.25 1
0.25 0.25 0.25 1
0.25 0.25 0.25 1
0.25 0.25 0.25 1
0.25 0.25 0.25 1
0.25 0.25 0.25 1
0.25 0.25 0.25 1
0.25 0.25 0.25 1
0.25 0.25 0.25 1
0.25 0.25 0.25 1
0.25 0.25 0.25 1
0.25 0.25 0.25 1
0.25 0.25 0.25 1
0.25 0.25 0.25 1
0.25 0.25 0.25 1
0.25 0.25 0.25 1
0.25 0.25 0.25 1
0.25 0.25 0.25 1
0.25 0.25 0.25 1
0.25 0.25 0.25 1
0.25 0.25 0.25 1
0.25 0.25 0.25 1
0.25 0.25 0.25 1
0.25 0.25 0.25 1
0.25 0.25 0.25 1
0.25 0.25 0.25 1
0.25 0.25 0.25 1
0.25 0.25 0.25 1
0.25 0.25 0.25 1
0.25 0.25 0.25 1
0.25 0.25 0.25 1
0.25 0.25 0.25 1
0.25 0.25 0.25 1
0.25 0.25 0.25 1
0.25 0.25 0.25 1
0.25 0.25 0.25 1
0.25 0.25 0.25 1
0.25 0.25 0.25 1
0.25 0.25 0.25 1
0.25 0.25 0.25 1
0.25 0.25 0.25 1
0.25 0.25 0.25 1
0.25 0.25 0.25 1
0.25 0.25 0.25 1
0.25 0.25 0.25 1
0.25 0.25 0.25 1
0.25 0.25 0.25 1
0.25 0.25 0.25 1
0.25 0.25 0.25 1
0.25 0.25 0.25 1
0.25 0.25 0.25 1
0.25 0.25 0.25 1
0.25 0.25 0.25 1
0.25 0.25 0.25 1
0.25 0.25 0.25 1
0.25 0.25 0.25 1
0.25 0.25 0.25 1
0.25 0.25 0.25 1
0.25 0.25 0.25 1
0.25 0.25 0.25 1
0.25 0.25 0.25 1
0.25 0.25 0.25 1
0.25 0.25 0.25 1
0.25 0.25 0.25 1
0.25 0.25 0.25 1
0.25 0.25 0.25 1
0.25 0.25 0.25 1
0.25 0.25 0.25 1
0.25 0.25 0.25 1
0.25 0.25 0.25 1
0.25 0.25 0.25 1
0.25 0.25 0.25 1
0.25 0.25 0.25 1
0.25 0.25 0.25 1
0.25 0.25 0.25 1
0.25 0.25 0.25 1
0.25 0.25 0.25 1
0.25 0.25 0.25 1
0.25 0.25 0.25 1
0.25 0.25 0.25 1
0.25 0.25 0.25 1
0.25 0.25 0.25 1
0.25 0.25 0.25 1
0.25 0.25 0.25 1
0.25 0.25 0.25 1
0.25 0.25 0.25 1
0.25 0.25 0.25 1
0.25 0.25 0.25 1
0.25 0.25 0.25 1
0.25 0.25 0.25 1
0.25 0.25 0.25 1
0.25 0.25 0.25 1
0.25 0.25 0.25 1
0.25 0.25 0.25 1
0.25 0.25 0.25 1
0.25 0.25 0.25 1
0.25 0.25 0.25 1
0.25 0.25 0.25 1
0.25 0.25 0.25 1
0.25 0.25 0.25 1
0.25 0.25 0.25 1
0.25 0.25 0.25 1
0.25 0.25 0.25 1
0.25 0.25 0.25 1
0.25 0.25 0.25 1
0.25 0.25 0.25 1
0.25 0.25 0.25 1
0.25 0.25 0.25 1
0.25 0.25 0.25 1
0.25 0.25 0.25 1
0.25 0.25 0.25 1
0.25 0.25 0.25 1
0.25 0.25 0.25 1
0.25 0.25 0.25 1
0.25 0.25 0.25 1
0.25 0.25 0.25 1
0.25 0.25 0.25 1
0.25 0.25 0.25 1
0.25 0.25 0.25 1
0.25 0.25 0.25 1
0.25 0.25 0.25 1
0.25 0.25 0.25 1
0.25 0.25 0.25 1
0.25 0.25 0.25 1
0.25 0.25 0.25 1
0.25 0.25 0.25 1
0.25 0.25 0.25 1
0.25 0.25 0.25 1
0.25 0.25 0.25 1
0.25 0.25 0.25 1
0.25 0.25 0.25 1
0.25 0.25 0.25 1
0.25 0.25 0.25 1
0.25 0.25 0.25 1
0.25 0.25 0.25 1
0.25 0.25 0.25 1
0.25 0.25 0.25 1
0.25 0.25 0.25 1
0.25 0.25 0.25 1
0.25 0.25 0.25 1
0.25 0.25 0.25 1
0.25 0.25 0.25 1
0.25 0.25 0.25 1
0.25 0.25 0.25 1
0.25 0.25 0.25 1
0.25 0.25 0.25 1
0.25 0.25 0.25 1
0.25 0.25 0.25 1
0.25 0.25 0.25 1
0.25 0.25 0.25 1
0.25 0.25 0.25 1
0.25 0.25 0.25 1
0.25 0.25 0.25 1
0.25 0.25 0.25 1
0.25 0.25 0.25 1
0.25 0.25 0.25 1
0.25 0.25 0.25 1
0.25 0.25 0.25 1
0.25 0.25 0.25 1
0.25 0.25 0.25 1
0.25 0.25 0.25 1
0.25 0.25 0.25 1
0.25 0.25 0.25 1
0.25 0.25 0.25 1
0.25 0.25 0.25 1
0.25 0.25 0.25 1
0.25 0.25 0.25 1
0.25 0.25 0.25 1
0.25 0.25 0.25 1
0.25 0.25 0.25 1
0.25 0.25 0.25 1
0.25 0.25 0.25 1
0.25 0.25 0.25 1
0.25 0.25 0.25 1
0.25 0.25 0.25 1
0.25 0.25 0.25 1
0.25 0.25 0.25 1
0.25 0.25 0.25 1
0.25 0.25 0.25 1
0.25 0.25 0.25 1
0.25 0.25 0.25 1
0.25 0.25 0.25 1
0.25 0.25 0.25 1
0.25 0.25 0.25 1
0.25 0.25 0.25 1
0.25 0.25 0.25 1
0.25 0.25 0.25 1
0.25 0.25 0.25 1
0.25 0.25 0.25 1
0.25 0.25 0.25 1
0.25 0.25 0.25 1
0.25 0.25 0.25 1
0.25 0.25 0.25 1
0.25 0.25 0.25 1
0.25 0.25 0.25 1
0.25 0.25 0.25 1
0.25 0.25 0.25 1
0.25 0.25 0.25 1
0.25 0.25 0.25 1
0.25 0.25 0.25 1
0.25 0.25 0.25 1
0.25 0.25 0.25 1
0.25 0.25 0.25 1
0.25 0.25 0.25 1
0.25 0.25 0.25 1
0.25 0.25 0.25 1
0.25 0.25 0.25 1
0.25 0.25 0.25 1
0.25 0.25 0.25 1
0.25 0.25 0.25 1
0.25 0.25 0.25 1
0.25 0.25 0.25 1
0.25 0.25 0.25 1
0.25 0.25 0.25 1
0.25 0.25 0.25 1
0.25 0.25 0.25 1
0.25 0.25 0.25 1
0.25 0.25 0.25 1
0.25 0.25 0.25 1
0.25 0.25 0.25 1
0.25 0.25 0.25 1
0.25 0.25 0.25 1
0.25 0.25 0.25 1
0.25 0.25 0.25 1
0.25 0.25 0.25 1
0.25 0.25 0.25 1
0.25 0.25 0.25 1
0.25 0.25 0.25 1
0.25 0.25 0.25 1
0.25 0.25 0.25 1
0.25 0.25 0.25 1
0.25 0.25 0.25 1
0.25 0.25 0.25 1
0.25 0.25 0.25 1
0.25 0.25 0.25 1
0.25 0.25 0.25 1
0.25 0.25 0.25 1
0.25 0.25 0.25 1
0.25 0.25 0.25 1
0.25 0.25 0.25 1
0.25 0.25 0.25 1
0.25 0.25 0.25 1
0.25 0.25 0.25 1
0.25 0.25 0.25 1
0.25 0.25 0.25 1
0.25 0.25 0.25 1
0.25 0.25 0.25 1
0.25 0.25 0.25 1
0.25 0.25 0.25 1
0.25 0.25 0.25 1
0.25 0.25 0.25 1
0.25 0.25 0.25 1
0.25 0.25 0.25 1
0.25 0.25 0.25 1
0.25 0.25 0.25 1
0.25 0.25 0.25 1
0.25 0.25 0.25 1
0.25 0.25 0.25 1
0.25 0.25 0.25 1
0.25 0.25 0.25 1
0.25 0.25 0.25 1
0.25 0.25 0.25 1
0.25 0.25 0.25 1
0.25 0.25 0.25 1
0.25 0.25 0.25 1
0.25 0.25 0.25 1
0.25 0.25 0.25 1
0.25 0.25 0.25 1
0.25 0.25 0.25 1
0.25 0.25 0.25 1
0.25 0.25 0.25 1
0.25 0.25 0.25 1
0.25 0.25 0.25 1
0.25 0.25 0.25 1
0.25 0.25 0.25 1
0.25 0.25 0.25 1
0.25 0.25 0.25 1
0.25 0.25 0.25 1
0.25 0.25 0.25 1
0.25 0.25 0.25 1
0.25 0.25 0.25 1
0.25 0.25 0.25 1
0.25 0.25 0.25 1
0.25 0.25 0.25 1
0.25 0.25 0.25 1
0.25 0.25 0.25 1
0.25 0.25 0.25 1
0.25 0.25 0.25 1
0.25 0.25 0.25 1
0.25 0.25 0.25 1
0.25 0.25 0.25 1
0.25 0.25 0.25 1
0.25 0.25 0.25 1
0.25 0.25 0.25 1
0.25 0.25 0.25 1
0.25 0.25 0.25 1
0.25 0.25 0.25 1
0.25 0.25 0.25 1
0.25 0.25 0.25 1
0.25 0.25 0.25 1
0.25 0.25 0.25 1
0.25 0.25 0.25 1
0.25 0.25 0.25 1
0.25 0.25 0.25 1
0.25 0.25 0.25 1
0.25 0.25 0.25 1
0.25 0.25 0.25 1
0.25 0.25 0.25 1
0.25 0.25 0.25 1
0.25 0.25 0.25 1
0.25 0.25 0.25 1
0.25 0.25 0.25 1
0.25 0.25 0.25 1
0.25 0.25 0.25 1
0.25 0.25 0.25 1
0.25 0.25 0.25 1
0.25 0.25 0.25 1
0.25 0.25 0.25 1
0.25 0.25 0.25 1
0.25 0.25 0.25 1
0.25 0.25 0.25 1
0.25 0.25 0.25 1
0.25 0.25 0.25 1
0.25 0.25 0.25 1
0.25 0.25 0.25 1
0.25 0.25 0.25 1
0.25 0.25 0.25 1
0.25 0.25 0.25 1
0.25 0.25 0.25 1
0.25 0.25 0.25 1
0.25 0.25 0.25 1
0.25 0.25 0.25 1
0.25 0.25 0.25 1
0.25 0.25 0.25 1
0.25 0.25 0.25 1
0.25 0.25 0.25 1
0.25 0.25 0.25 1
0.25 0.25 0.25 1
0.25 0.25 0.25 1
0.25 0.25 0.25 1
0.25 0.25 0.25 1
0.25 0.25 0.25 1
0.25 0.25 0.25 1
0.25 0.25 0.25 1
0.25 0.25 0.25 1
0.25 0.25 0.25 1
0.25 0.25 0.25 1
0.25 0.25 0.25 1
0.25 0.25 0.25 1
0.25 0.25 0.25 1
0.25 0.25 0.25 1
0.25 0.25 0.25 1
0.25 0.25 0.25 1
0.25 0.25 0.25 1
0.25 0.25 0.25 1
0.25 0.25 0.25 1
0.25 0.25 0.25 1
0.25 0.25 0.25 1
0.25 0.25 0.25 1
0.25 0.25 0.25 1
0.25 0.25 0.25 1
0.25 0.25 0.25 1
0.25 0.25 0.25 1
0.25 0.25 0.25 1
0.25 0.25 0.25 1
0.25 0.25 0.25 1
0.25 0.25 0.25 1
0.25 0.25 0.25 1
0.25 0.25 0.25 1
0.25 0.25 0.25 1
0.25 0.25 0.25 1
0.25 0.25 0.25 1
0.25 0.25 0.25 1
0.25 0.25 0.25 1
0.25 0.25 0.25 1
0.25 0.25 0.25 1
0.25 0.25 0.25 1
0.25 0.25 0.25 1
0.25 0.25 0.25 1
0.25 0.25 0.25 1
0.25 0.25 0.25 1
0.25 0.25 0.25 1
0.25 0.25 0.25 1
0.25 0.25 0.25 1
0.25 0.25 0.25 1
0.25 0.25 0.25 1
0.25 0.25 0.25 1
0.25 0.25 0.25 1
0.25 0.25 0.25 1
0.25 0.25 0.25 1
0.25 0.25 0.25 1
0.25 0.25 0.25 1
0.25 0.25 0.25 1
0.25 0.25 0.25 1
0.25 0.25 0.25 1
0.25 0.25 0.25 1
0.25 0.25 0.25 1
0.25 0.25 0.25 1
0.25 0.25 0.25 1
0.25 0.25 0.25 1
0.25 0.25 0.25 1
0.25 0.25 0.25 1
0.25 0.25 0.25 1
0.25 0.25 0.25 1
0.25 0.25 0.25 1
0.25 0.25 0.25 1
0.25 0.25 0.25 1
0.25 0.25 0.25 1
0.25 0.25 0.25 1
0.25 0.25 0.25 1
0.25 0.25 0.25 1
0.25 0.25 0.25 1
0.25 0.25 0.25 1
0.25 0.25 0.25 1
0.25 0.25 0.25 1
0.25 0.25 0.25 1
0.25 0.25 0.25 1
0.25 0.25 0.25 1
0.25 0.25 0.25 1
0.25 0.25 0.25 1
0.25 0.25 0.25 1
0.25 0.25 0.25 1
0.25 0.25 0.25 1
0.25 0.25 0.25 1
0.25 0.25 0.25 1
0.25 0.25 0.25 1
0.25 0.25 0.25 1
0.25 0.25 0.25 1
0.25 0.25 0.25 1
0.25 0.25 0.25 1
0.25 0.25 0.25 1
0.25 0.25 0.25 1
0.25 0.25 0.25 1
0.25 0.25 0.25 1
0.25 0.25 0.25 1
0.25 0.25 0.25 1
0.25 0.25 0.25 1
0.25 0.25 0.25 1
0.25 0.25 0.25 1
0.25 0.25 0.25 1
0.25 0.25 0.25 1
0.25 0.25 0.25 1
0.25 0.25 0.25 1
0.25 0.25 0.25 1
0.25 0.25 0.25 1
0.25 0.25 0.25 1
0.25 0.25 0.25 1
0.25 0.25 0.25 1
0.25 0.25 0.25 1
0.25 0.25 0.25 1
0.25 0.25 0.25 1
0.25 0.25 0.25 1
0.25 0.25 0.25 1
0.25 0.25 0.25 1
0.25 0.25 0.25 1
0.25 0.25 0.25 1
0.25 0.25 0.25 1
0.25 0.25 0.25 1
0.25 0.25 0.25 1
0.25 0.25 0.25 1
0.25 0.25 0.25 1
0.25 0.25 0.25 1
0.25 0.25 0.25 1
0.25 0.25 0.25 1
0.25 0.25 0.25 1
0.25 0.25 0.25 1
0.25 0.25 0.25 1
0.25 0.25 0.25 1
0.25 0.25 0.25 1
0.25 0.25 0.25 1
0.25 0.25 0.25 1
0.25 0.25 0.25 1
0.25 0.25 0.25 1
0.25 0.25 0.25 1
0.25 0.25 0.25 1
0.25 0.25 0.25 1
0.25 0.25 0.25 1
0.25 0.25 0.25 1
0.25 0.25 0.25 1
0.25 0.25 0.25 1
0.25 0.25 0.25 1
0.25 0.25 0.25 1
0.25 0.25 0.25 1
0.25 0.25 0.25 1
0.25 0.25 0.25 1
0.25 0.25 0.25 1
0.25 0.25 0.25 1
0.25 0.25 0.25 1
0.25 0.25 0.25 1
0.25 0.25 0.25 1
0.25 0.25 0.25 1
0.25 0.25 0.25 1
0.25 0.25 0.25 1
0.25 0.25 0.25 1
0.25 0.25 0.25 1
0.25 0.25 0.25 1
0.25 0.25 0.25 1
0.25 0.25 0.25 1
0.25 0.25 0.25 1
0.25 0.25 0.25 1
0.25 0.25 0.25 1
0.25 0.25 0.25 1