# vtk DataFile Version 3.0
Gocad TSurf to VTK
ASCII
DATASET POLYDATA
POINTS 1307 float
21575973.703 4551597.289 576.798
21575926.125 4551592.129 583.201
21575695.172 4551656.805 187.401
21575878.547 4551586.969 589.604
21576021.281 4551602.449 570.395
21576258.031 4551739.523 177.796
21575233.281 4551786.164 -604.200
21576068.859 4551607.609 563.991
21576116.438 4551612.766 557.589
21576400.781 4551755.000 158.587
21576494.797 4551876.594 -214.803
21576164.016 4551617.926 551.185
21576211.594 4551623.086 544.782
21576259.188 4551628.246 538.398
21576436.469 4551758.867 153.798
21576708.906 4551899.813 -226.572
21576306.766 4551633.406 540.512
21576354.344 4551638.563 542.627
21576401.922 4551643.723 544.741
21576579.203 4551774.348 160.142
21576449.500 4551648.883 546.856
21576497.078 4551654.043 548.970
21576686.250 4551785.953 164.899
21576544.656 4551659.203 551.084
21576592.234 4551664.359 553.199
21576639.813 4551669.520 555.313
21576757.625 4551793.695 168.071
21576756.484 4551904.969 -224.458
21576687.391 4551674.680 557.428
21576733.828 4551677.684 559.606
21576780.266 4551680.684 561.785
21576862.125 4551800.449 172.974
21576826.719 4551683.688 563.965
21576873.156 4551686.688 567.523
21576919.594 4551689.691 571.388
21577001.438 4551809.457 184.339
21577013.609 4551924.719 -208.508
21576966.031 4551692.691 575.254
21577012.469 4551695.695 579.119
21577105.922 4551816.211 193.038
21577058.906 4551698.695 582.985
21577105.359 4551701.699 586.852
21577151.797 4551704.699 590.717
21577140.750 4551818.461 195.937
21577198.234 4551707.703 594.583
21577246.516 4551706.191 599.159
21577213.172 4551816.195 202.800
21577294.797 4551704.684 603.734
21577343.078 4551703.172 608.310
21577321.813 4551812.797 213.096
21577203.969 4551925.445 -191.269
21577391.359 4551701.660 612.885
21577439.641 4551700.148 617.461
21577487.906 4551698.641 622.035
21577673.281 4551806.367 219.958
21577536.188 4551697.129 626.611
21577584.469 4551695.617 631.187
21577632.750 4551694.105 635.763
21577745.719 4551804.098 226.822
21577834.531 4551914.844 -184.407
21577681.031 4551692.598 640.338
21577729.313 4551691.086 644.792
21577777.094 4551699.277 647.205
21577889.797 4551814.121 237.213
21578093.953 4551935.668 -167.147
21577824.859 4551707.469 649.617
21577872.641 4551715.660 652.030
21577920.422 4551723.852 654.443
21578065.875 4551837.578 246.865
21577968.188 4551732.043 656.855
21578015.969 4551740.234 659.269
21578059.641 4551738.746 662.487
21578103.313 4551737.262 665.706
21578131.375 4551835.348 251.428
21578146.969 4551735.773 668.571
21578190.641 4551734.289 670.779
21578232.250 4551825.262 257.318
21578206.609 4551922.961 -160.070
21578234.313 4551732.801 672.988
21578281.469 4551722.324 676.424
21578267.625 4551817.406 259.895
21578328.625 4551711.848 679.860
21578375.781 4551701.371 683.296
21578422.938 4551690.895 686.732
21578373.719 4551793.832 267.626
21578470.094 4551680.418 690.168
21578517.250 4551669.941 693.604
21578444.469 4551778.117 272.781
21578324.500 4551896.770 -151.479
21578564.422 4551659.465 697.041
21578611.578 4551648.988 700.477
21578658.734 4551638.512 703.913
21578585.938 4551746.688 283.089
21578705.891 4551628.035 707.350
21578753.047 4551617.559 710.786
21578956.641 4551705.035 283.089
21578800.203 4551607.082 714.222
21578848.344 4551601.230 717.156
21579100.313 4551684.008 292.267
21579160.234 4551792.512 -144.607
21578896.469 4551595.375 720.089
21578944.609 4551589.523 723.023
21578992.742 4551583.672 725.956
21579208.609 4551670.844 301.510
21579040.875 4551577.820 729.777
21579089.008 4551571.969 735.346
21579137.141 4551566.113 740.916
21579280.813 4551662.063 309.864
21579352.281 4551766.789 -129.542
21579185.273 4551560.262 746.486
21579233.414 4551554.410 752.056
21579353.016 4551653.281 318.219
21579281.547 4551548.555 757.626
21579329.680 4551542.703 763.196
21579377.813 4551536.852 768.765
21579461.734 4551636.359 330.932
21579426.508 4551525.992 774.576
21579475.203 4551515.133 780.388
21579523.898 4551504.273 785.156
21579607.828 4551603.781 344.896
21579572.594 4551493.414 789.175
21579621.297 4551482.551 793.194
21579680.867 4551587.492 350.923
21579594.359 4551725.008 -103.403
21579669.992 4551471.691 797.212
21579718.688 4551460.832 801.231
21579822.086 4551546.508 358.484
21579767.383 4551449.973 805.249
21579816.078 4551439.113 809.113
21579864.773 4551428.254 810.556
21579906.977 4551406.191 811.311
21579885.383 4551513.414 359.617
21579949.180 4551384.129 812.067
21579991.375 4551362.066 812.822
21579917.039 4551496.867 360.183
21579605.234 4551840.805 -549.692
21580033.578 4551340.000 813.578
21580316.055 4551322.270 361.884
21580408.617 4551403.820 -93.211
21580075.781 4551317.938 814.334
21580117.984 4551295.875 815.089
21580160.188 4551273.813 815.845
21580202.383 4551251.750 816.600
21580379.352 4551289.176 363.017
21580244.586 4551229.688 817.356
21580286.789 4551207.625 818.111
21580411.008 4551272.629 363.583
21580514.125 4551348.664 -91.322
21580328.992 4551185.563 818.867
21580371.195 4551163.496 819.622
21580474.313 4551239.531 364.717
21580413.391 4551141.434 820.378
21580455.594 4551119.371 821.133
21580497.797 4551097.309 821.889
21580569.266 4551189.891 366.417
21580530.781 4551062.863 820.833
21580563.758 4551028.418 814.631
21580643.469 4551112.391 356.322
21580756.156 4551161.914 -108.190
21580596.742 4550993.973 808.429
21580629.727 4550959.527 802.226
21580662.703 4550925.082 796.024
21580695.688 4550890.637 789.822
21580767.148 4550983.219 333.063
21580728.664 4550856.191 783.620
21580761.648 4550821.746 777.418
21580794.633 4550787.301 777.669
21580950.172 4550749.125 333.251
21581105.703 4550710.949 -111.166
21580827.609 4550752.855 779.272
21580860.594 4550718.410 780.876
21580999.641 4550697.457 335.657
21580883.453 4550679.887 783.603
21580906.305 4550641.359 786.331
21580929.164 4550602.836 789.058
21581051.063 4550610.777 341.794
21581229.234 4550470.301 -92.846
21580952.023 4550564.313 791.786
21580974.875 4550525.785 794.514
21581110.734 4550490.109 351.130
21580997.734 4550487.262 797.241
21581008.727 4550441.949 801.507
21581019.711 4550396.633 805.774
21581127.219 4550422.141 357.530
21581030.703 4550351.320 810.041
21581041.688 4550306.004 814.308
21581052.680 4550260.691 818.574
21581151.938 4550320.180 367.131
21581240.219 4550424.984 -88.579
21581063.664 4550215.375 822.841
21581160.188 4550286.195 370.330
21581074.656 4550170.063 827.107
21581085.641 4550124.746 831.374
21581096.633 4550079.434 835.640
21581201.656 4550039.121 376.730
21581306.688 4549998.805 -82.180
21581098.570 4550030.734 840.883
21581100.516 4549982.035 847.050
21581102.453 4549933.336 853.451
21581207.484 4549893.023 394.888
21581104.398 4549884.641 859.850
21581106.336 4549835.941 866.251
21581108.281 4549787.242 872.652
21581213.313 4549746.930 414.090
21581110.219 4549738.543 879.053
21581112.164 4549689.844 885.453
21581214.766 4549710.402 418.890
21581322.219 4549609.219 -80.628
21581114.102 4549641.145 891.854
21581116.047 4549592.445 888.782
21581117.984 4549543.746 880.443
21581217.672 4549637.355 410.332
21581119.922 4549495.047 872.103
21581121.867 4549446.352 863.763
21581123.805 4549397.652 855.424
21581224.953 4549454.734 379.058
21581125.750 4549348.953 847.083
21581127.688 4549300.254 838.744
21581129.633 4549251.555 830.403
21581232.031 4549085.953 366.548
21581333.453 4548944.703 -93.138
21581131.570 4549202.855 822.064
21581133.516 4549154.156 813.723
21581236.398 4548976.383 347.783
21581135.453 4549105.461 805.384
21581137.398 4549056.762 797.044
21581139.336 4549008.063 788.897
21581237.852 4548939.859 341.672
21581141.281 4548959.363 780.844
21581143.219 4548910.664 772.792
21581134.672 4548867.027 766.582
21581234.352 4548834.086 324.936
21581126.125 4548823.391 760.372
21581117.578 4548779.754 754.161
21581109.031 4548736.117 747.951
21581208.711 4548703.172 306.306
21581312.672 4548692.047 -132.235
21581100.484 4548692.480 741.741
21581091.938 4548648.844 735.531
21581083.391 4548605.207 729.320
21581195.891 4548637.719 296.990
21581085.508 4548562.523 722.222
21581087.625 4548519.836 715.124
21581199.070 4548511.211 286.343
21581089.734 4548477.148 708.026
21581091.852 4548434.465 700.927
21581202.234 4548447.184 275.695
21581311.563 4548481.242 -145.987
21581105.453 4548392.039 692.749
21581222.648 4548383.547 263.428
21581339.828 4548375.055 -165.893
21581119.063 4548349.617 684.570
21581132.664 4548307.195 676.393
21581146.266 4548264.770 668.214
21581237.219 4548248.566 240.211
21581142.383 4548217.203 660.914
21581138.492 4548169.641 653.615
21581134.609 4548122.074 646.315
21581228.477 4548141.539 229.329
21581130.719 4548074.508 641.730
21581126.836 4548026.941 639.106
21581178.492 4547899.957 229.329
21581224.328 4547701.625 -184.382
21581122.953 4547979.375 636.482
21581119.063 4547931.813 633.859
21581172.664 4547828.609 225.395
21581115.180 4547884.246 631.236
21581095.836 4547842.203 630.369
21581076.500 4547800.164 629.501
21581140.742 4547729.875 222.126
21581057.156 4547758.121 628.634
21581037.813 4547716.078 627.767
21581097.219 4547635.281 220.175
21581185.641 4547617.543 -186.117
21581018.469 4547674.039 626.900
21580999.125 4547631.996 626.033
21581082.711 4547603.750 219.525
21580979.789 4547589.957 625.166
21580960.445 4547547.914 624.638
21580978.922 4547463.676 224.246
21581047.250 4547430.777 -179.991
21580927.211 4547513.688 627.201
21580893.977 4547479.457 629.764
21580860.742 4547445.230 632.328
21580929.063 4547412.332 228.091
21580827.500 4547411.000 634.892
21580794.266 4547376.773 637.455
21580761.031 4547342.547 640.018
21580758.359 4547215.891 230.014
21580755.688 4547089.230 -179.991
21580727.797 4547308.316 642.581
21580694.563 4547274.090 645.145
21580708.508 4547164.547 233.859
21580661.328 4547239.863 647.708
21580628.094 4547205.633 650.271
21580633.727 4547087.531 239.626
21580606.125 4546935.203 -168.456
21580594.859 4547171.406 652.834
21580561.625 4547137.180 655.398
[...]
POINT_DATA 1307
COLOR_SCALARS GocadColor 4
0.937255 0.517647 0.937255 1
0.937255 0.517647 0.937255 1
0.937255 0.517647 0.937255 1
0.937255 0.517647 0.937255 1
0.937255 0.517647 0.937255 1
0.937255 0.517647 0.937255 1
0.937255 0.517647 0.937255 1
0.937255 0.517647 0.937255 1
0.937255 0.517647 0.937255 1
0.937255 0.517647 0.937255 1
0.937255 0.517647 0.937255 1
0.937255 0.517647 0.937255 1
0.937255 0.517647 0.937255 1
0.937255 0.517647 0.937255 1
0.937255 0.517647 0.937255 1
0.937255 0.517647 0.937255 1
0.937255 0.517647 0.937255 1
0.937255 0.517647 0.937255 1
0.937255 0.517647 0.937255 1
0.937255 0.517647 0.937255 1
0.937255 0.517647 0.937255 1
0.937255 0.517647 0.937255 1
0.937255 0.517647 0.937255 1
0.937255 0.517647 0.937255 1
0.937255 0.517647 0.937255 1
0.937255 0.517647 0.937255 1
0.937255 0.517647 0.937255 1
0.937255 0.517647 0.937255 1
0.937255 0.517647 0.937255 1
0.937255 0.517647 0.937255 1
0.937255 0.517647 0.937255 1
0.937255 0.517647 0.937255 1
0.937255 0.517647 0.937255 1
0.937255 0.517647 0.937255 1
0.937255 0.517647 0.937255 1
0.937255 0.517647 0.937255 1
0.937255 0.517647 0.937255 1
0.937255 0.517647 0.937255 1
0.937255 0.517647 0.937255 1
0.937255 0.517647 0.937255 1
0.937255 0.517647 0.937255 1
0.937255 0.517647 0.937255 1
0.937255 0.517647 0.937255 1
0.937255 0.517647 0.937255 1
0.937255 0.517647 0.937255 1
0.937255 0.517647 0.937255 1
0.937255 0.517647 0.937255 1
0.937255 0.517647 0.937255 1
0.937255 0.517647 0.937255 1
0.937255 0.517647 0.937255 1
0.937255 0.517647 0.937255 1
0.937255 0.517647 0.937255 1
0.937255 0.517647 0.937255 1
0.937255 0.517647 0.937255 1
0.937255 0.517647 0.937255 1
0.937255 0.517647 0.937255 1
0.937255 0.517647 0.937255 1
0.937255 0.517647 0.937255 1
0.937255 0.517647 0.937255 1
0.937255 0.517647 0.937255 1
0.937255 0.517647 0.937255 1
0.937255 0.517647 0.937255 1
0.937255 0.517647 0.937255 1
0.937255 0.517647 0.937255 1
0.937255 0.517647 0.937255 1
0.937255 0.517647 0.937255 1
0.937255 0.517647 0.937255 1
0.937255 0.517647 0.937255 1
0.937255 0.517647 0.937255 1
0.937255 0.517647 0.937255 1
0.937255 0.517647 0.937255 1
0.937255 0.517647 0.937255 1
0.937255 0.517647 0.937255 1
0.937255 0.517647 0.937255 1
0.937255 0.517647 0.937255 1
0.937255 0.517647 0.937255 1
0.937255 0.517647 0.937255 1
0.937255 0.517647 0.937255 1
0.937255 0.517647 0.937255 1
0.937255 0.517647 0.937255 1
0.937255 0.517647 0.937255 1
0.937255 0.517647 0.937255 1
0.937255 0.517647 0.937255 1
0.937255 0.517647 0.937255 1
0.937255 0.517647 0.937255 1
0.937255 0.517647 0.937255 1
0.937255 0.517647 0.937255 1
0.937255 0.517647 0.937255 1
0.937255 0.517647 0.937255 1
0.937255 0.517647 0.937255 1
0.937255 0.517647 0.937255 1
0.937255 0.517647 0.937255 1
0.937255 0.517647 0.937255 1
0.937255 0.517647 0.937255 1
0.937255 0.517647 0.937255 1
0.937255 0.517647 0.937255 1
0.937255 0.517647 0.937255 1
0.937255 0.517647 0.937255 1
0.937255 0.517647 0.937255 1
0.937255 0.517647 0.937255 1
0.937255 0.517647 0.937255 1
0.937255 0.517647 0.937255 1
0.937255 0.517647 0.937255 1
0.937255 0.517647 0.937255 1
0.937255 0.517647 0.937255 1
0.937255 0.517647 0.937255 1
0.937255 0.517647 0.937255 1
0.937255 0.517647 0.937255 1
0.937255 0.517647 0.937255 1
0.937255 0.517647 0.937255 1
0.937255 0.517647 0.937255 1
0.937255 0.517647 0.937255 1
0.937255 0.517647 0.937255 1
0.937255 0.517647 0.937255 1
0.937255 0.517647 0.937255 1
0.937255 0.517647 0.937255 1
0.937255 0.517647 0.937255 1
0.937255 0.517647 0.937255 1
0.937255 0.517647 0.937255 1
0.937255 0.517647 0.937255 1
0.937255 0.517647 0.937255 1
0.937255 0.517647 0.937255 1
0.937255 0.517647 0.937255 1
0.937255 0.517647 0.937255 1
0.937255 0.517647 0.937255 1
0.937255 0.517647 0.937255 1
0.937255 0.517647 0.937255 1
0.937255 0.517647 0.937255 1
0.937255 0.517647 0.937255 1
0.937255 0.517647 0.937255 1
0.937255 0.517647 0.937255 1
0.937255 0.517647 0.937255 1
0.937255 0.517647 0.937255 1
0.937255 0.517647 0.937255 1
0.937255 0.517647 0.937255 1
0.937255 0.517647 0.937255 1
0.937255 0.517647 0.937255 1
0.937255 0.517647 0.937255 1
0.937255 0.517647 0.937255 1
0.937255 0.517647 0.937255 1
0.937255 0.517647 0.937255 1
0.937255 0.517647 0.937255 1
0.937255 0.517647 0.937255 1
0.937255 0.517647 0.937255 1
0.937255 0.517647 0.937255 1
0.937255 0.517647 0.937255 1
0.937255 0.517647 0.937255 1
0.937255 0.517647 0.937255 1
0.937255 0.517647 0.937255 1
0.937255 0.517647 0.937255 1
0.937255 0.517647 0.937255 1
0.937255 0.517647 0.937255 1
0.937255 0.517647 0.937255 1
0.937255 0.517647 0.937255 1
0.937255 0.517647 0.937255 1
0.937255 0.517647 0.937255 1
0.937255 0.517647 0.937255 1
0.937255 0.517647 0.937255 1
0.937255 0.517647 0.937255 1
0.937255 0.517647 0.937255 1
0.937255 0.517647 0.937255 1
0.937255 0.517647 0.937255 1
0.937255 0.517647 0.937255 1
0.937255 0.517647 0.937255 1
0.937255 0.517647 0.937255 1
0.937255 0.517647 0.937255 1
0.937255 0.517647 0.937255 1
0.937255 0.517647 0.937255 1
0.937255 0.517647 0.937255 1
0.937255 0.517647 0.937255 1
0.937255 0.517647 0.937255 1
0.937255 0.517647 0.937255 1
0.937255 0.517647 0.937255 1
0.937255 0.517647 0.937255 1
0.937255 0.517647 0.937255 1
0.937255 0.517647 0.937255 1
0.937255 0.517647 0.937255 1
0.937255 0.517647 0.937255 1
0.937255 0.517647 0.937255 1
0.937255 0.517647 0.937255 1
0.937255 0.517647 0.937255 1
0.937255 0.517647 0.937255 1
0.937255 0.517647 0.937255 1
0.937255 0.517647 0.937255 1
0.937255 0.517647 0.937255 1
0.937255 0.517647 0.937255 1
0.937255 0.517647 0.937255 1
0.937255 0.517647 0.937255 1
0.937255 0.517647 0.937255 1
0.937255 0.517647 0.937255 1
0.937255 0.517647 0.937255 1
0.937255 0.517647 0.937255 1
0.937255 0.517647 0.937255 1
0.937255 0.517647 0.937255 1
0.937255 0.517647 0.937255 1
0.937255 0.517647 0.937255 1
0.937255 0.517647 0.937255 1
0.937255 0.517647 0.937255 1
0.937255 0.517647 0.937255 1
0.937255 0.517647 0.937255 1
0.937255 0.517647 0.937255 1
0.937255 0.517647 0.937255 1
0.937255 0.517647 0.937255 1
0.937255 0.517647 0.937255 1
0.937255 0.517647 0.937255 1
0.937255 0.517647 0.937255 1
0.937255 0.517647 0.937255 1
0.937255 0.517647 0.937255 1
0.937255 0.517647 0.937255 1
0.937255 0.517647 0.937255 1
0.937255 0.517647 0.937255 1
0.937255 0.517647 0.937255 1
0.937255 0.517647 0.937255 1
0.937255 0.517647 0.937255 1
0.937255 0.517647 0.937255 1
0.937255 0.517647 0.937255 1
0.937255 0.517647 0.937255 1
0.937255 0.517647 0.937255 1
0.937255 0.517647 0.937255 1
0.937255 0.517647 0.937255 1
0.937255 0.517647 0.937255 1
0.937255 0.517647 0.937255 1
0.937255 0.517647 0.937255 1
0.937255 0.517647 0.937255 1
0.937255 0.517647 0.937255 1
0.937255 0.517647 0.937255 1
0.937255 0.517647 0.937255 1
0.937255 0.517647 0.937255 1
0.937255 0.517647 0.937255 1
0.937255 0.517647 0.937255 1
0.937255 0.517647 0.937255 1
0.937255 0.517647 0.937255 1
0.937255 0.517647 0.937255 1
0.937255 0.517647 0.937255 1
0.937255 0.517647 0.937255 1
0.937255 0.517647 0.937255 1
0.937255 0.517647 0.937255 1
0.937255 0.517647 0.937255 1
0.937255 0.517647 0.937255 1
0.937255 0.517647 0.937255 1
0.937255 0.517647 0.937255 1
0.937255 0.517647 0.937255 1
0.937255 0.517647 0.937255 1
0.937255 0.517647 0.937255 1
0.937255 0.517647 0.937255 1
0.937255 0.517647 0.937255 1
0.937255 0.517647 0.937255 1
0.937255 0.517647 0.937255 1
0.937255 0.517647 0.937255 1
0.937255 0.517647 0.937255 1
0.937255 0.517647 0.937255 1
0.937255 0.517647 0.937255 1
0.937255 0.517647 0.937255 1
0.937255 0.517647 0.937255 1
0.937255 0.517647 0.937255 1
0.937255 0.517647 0.937255 1
0.937255 0.517647 0.937255 1
0.937255 0.517647 0.937255 1
0.937255 0.517647 0.937255 1
0.937255 0.517647 0.937255 1
0.937255 0.517647 0.937255 1
0.937255 0.517647 0.937255 1
0.937255 0.517647 0.937255 1
0.937255 0.517647 0.937255 1
0.937255 0.517647 0.937255 1
0.937255 0.517647 0.937255 1
0.937255 0.517647 0.937255 1
0.937255 0.517647 0.937255 1
0.937255 0.517647 0.937255 1
0.937255 0.517647 0.937255 1
0.937255 0.517647 0.937255 1
0.937255 0.517647 0.937255 1
0.937255 0.517647 0.937255 1
0.937255 0.517647 0.937255 1
0.937255 0.517647 0.937255 1
0.937255 0.517647 0.937255 1
0.937255 0.517647 0.937255 1
0.937255 0.517647 0.937255 1
0.937255 0.517647 0.937255 1
0.937255 0.517647 0.937255 1
0.937255 0.517647 0.937255 1
0.937255 0.517647 0.937255 1
0.937255 0.517647 0.937255 1
0.937255 0.517647 0.937255 1
0.937255 0.517647 0.937255 1
0.937255 0.517647 0.937255 1
0.937255 0.517647 0.937255 1
0.937255 0.517647 0.937255 1
0.937255 0.517647 0.937255 1
0.937255 0.517647 0.937255 1
0.937255 0.517647 0.937255 1
0.937255 0.517647 0.937255 1
0.937255 0.517647 0.937255 1
0.937255 0.517647 0.937255 1
0.937255 0.517647 0.937255 1
0.937255 0.517647 0.937255 1
0.937255 0.517647 0.937255 1
0.937255 0.517647 0.937255 1
0.937255 0.517647 0.937255 1
0.937255 0.517647 0.937255 1
0.937255 0.517647 0.937255 1
0.937255 0.517647 0.937255 1
0.937255 0.517647 0.937255 1
0.937255 0.517647 0.937255 1
0.937255 0.517647 0.937255 1
0.937255 0.517647 0.937255 1
0.937255 0.517647 0.937255 1
0.937255 0.517647 0.937255 1
0.937255 0.517647 0.937255 1
0.937255 0.517647 0.937255 1
0.937255 0.517647 0.937255 1
0.937255 0.517647 0.937255 1
0.937255 0.517647 0.937255 1
0.937255 0.517647 0.937255 1
0.937255 0.517647 0.937255 1
0.937255 0.517647 0.937255 1
0.937255 0.517647 0.937255 1
0.937255 0.517647 0.937255 1
0.937255 0.517647 0.937255 1
0.937255 0.517647 0.937255 1
0.937255 0.517647 0.937255 1
0.937255 0.517647 0.937255 1
0.937255 0.517647 0.937255 1
0.937255 0.517647 0.937255 1
0.937255 0.517647 0.937255 1
0.937255 0.517647 0.937255 1
0.937255 0.517647 0.937255 1
0.937255 0.517647 0.937255 1
0.937255 0.517647 0.937255 1
0.937255 0.517647 0.937255 1
0.937255 0.517647 0.937255 1
0.937255 0.517647 0.937255 1
0.937255 0.517647 0.937255 1
0.937255 0.517647 0.937255 1
0.937255 0.517647 0.937255 1
0.937255 0.517647 0.937255 1
0.937255 0.517647 0.937255 1
0.937255 0.517647 0.937255 1
0.937255 0.517647 0.937255 1
0.937255 0.517647 0.937255 1
0.937255 0.517647 0.937255 1
0.937255 0.517647 0.937255 1
0.937255 0.517647 0.937255 1
0.937255 0.517647 0.937255 1
0.937255 0.517647 0.937255 1
0.937255 0.517647 0.937255 1
0.937255 0.517647 0.937255 1
0.937255 0.517647 0.937255 1
0.937255 0.517647 0.937255 1
0.937255 0.517647 0.937255 1
0.937255 0.517647 0.937255 1
0.937255 0.517647 0.937255 1
0.937255 0.517647 0.937255 1
0.937255 0.517647 0.937255 1
0.937255 0.517647 0.937255 1
0.937255 0.517647 0.937255 1
0.937255 0.517647 0.937255 1
0.937255 0.517647 0.937255 1
0.937255 0.517647 0.937255 1
0.937255 0.517647 0.937255 1
0.937255 0.517647 0.937255 1
0.937255 0.517647 0.937255 1
0.937255 0.517647 0.937255 1
0.937255 0.517647 0.937255 1
0.937255 0.517647 0.937255 1
0.937255 0.517647 0.937255 1
0.937255 0.517647 0.937255 1
0.937255 0.517647 0.937255 1
0.937255 0.517647 0.937255 1
0.937255 0.517647 0.937255 1
0.937255 0.517647 0.937255 1
0.937255 0.517647 0.937255 1
0.937255 0.517647 0.937255 1
0.937255 0.517647 0.937255 1
0.937255 0.517647 0.937255 1
0.937255 0.517647 0.937255 1
0.937255 0.517647 0.937255 1
0.937255 0.517647 0.937255 1
0.937255 0.517647 0.937255 1
0.937255 0.517647 0.937255 1
0.937255 0.517647 0.937255 1
0.937255 0.517647 0.937255 1
0.937255 0.517647 0.937255 1
0.937255 0.517647 0.937255 1
0.937255 0.517647 0.937255 1
0.937255 0.517647 0.937255 1
0.937255 0.517647 0.937255 1
0.937255 0.517647 0.937255 1
0.937255 0.517647 0.937255 1
0.937255 0.517647 0.937255 1
0.937255 0.517647 0.937255 1
0.937255 0.517647 0.937255 1
0.937255 0.517647 0.937255 1
0.937255 0.517647 0.937255 1
0.937255 0.517647 0.937255 1
0.937255 0.517647 0.937255 1
0.937255 0.517647 0.937255 1
0.937255 0.517647 0.937255 1
0.937255 0.517647 0.937255 1
0.937255 0.517647 0.937255 1
0.937255 0.517647 0.937255 1
0.937255 0.517647 0.937255 1
0.937255 0.517647 0.937255 1
0.937255 0.517647 0.937255 1
0.937255 0.517647 0.937255 1
0.937255 0.517647 0.937255 1
0.937255 0.517647 0.937255 1
0.937255 0.517647 0.937255 1
0.937255 0.517647 0.937255 1
0.937255 0.517647 0.937255 1
0.937255 0.517647 0.937255 1
0.937255 0.517647 0.937255 1
0.937255 0.517647 0.937255 1
0.937255 0.517647 0.937255 1
0.937255 0.517647 0.937255 1
0.937255 0.517647 0.937255 1
0.937255 0.517647 0.937255 1
0.937255 0.517647 0.937255 1
0.937255 0.517647 0.937255 1
0.937255 0.517647 0.937255 1
0.937255 0.517647 0.937255 1
0.937255 0.517647 0.937255 1
0.937255 0.517647 0.937255 1
0.937255 0.517647 0.937255 1
0.937255 0.517647 0.937255 1
0.937255 0.517647 0.937255 1
0.937255 0.517647 0.937255 1
0.937255 0.517647 0.937255 1
0.937255 0.517647 0.937255 1
0.937255 0.517647 0.937255 1
0.937255 0.517647 0.937255 1
0.937255 0.517647 0.937255 1
0.937255 0.517647 0.937255 1
0.937255 0.517647 0.937255 1
0.937255 0.517647 0.937255 1
0.937255 0.517647 0.937255 1
0.937255 0.517647 0.937255 1
0.937255 0.517647 0.937255 1
0.937255 0.517647 0.937255 1
0.937255 0.517647 0.937255 1
0.937255 0.517647 0.937255 1
0.937255 0.517647 0.937255 1
0.937255 0.517647 0.937255 1
0.937255 0.517647 0.937255 1
0.937255 0.517647 0.937255 1
0.937255 0.517647 0.937255 1
0.937255 0.517647 0.937255 1
0.937255 0.517647 0.937255 1
0.937255 0.517647 0.937255 1
0.937255 0.517647 0.937255 1
0.937255 0.517647 0.937255 1
0.937255 0.517647 0.937255 1
0.937255 0.517647 0.937255 1
0.937255 0.517647 0.937255 1
0.937255 0.517647 0.937255 1
0.937255 0.517647 0.937255 1
0.937255 0.517647 0.937255 1
0.937255 0.517647 0.937255 1
0.937255 0.517647 0.937255 1
0.937255 0.517647 0.937255 1
0.937255 0.517647 0.937255 1
0.937255 0.517647 0.937255 1
0.937255 0.517647 0.937255 1
0.937255 0.517647 0.937255 1
0.937255 0.517647 0.937255 1
0.937255 0.517647 0.937255 1
0.937255 0.517647 0.937255 1
0.937255 0.517647 0.937255 1
0.937255 0.517647 0.937255 1
0.937255 0.517647 0.937255 1
0.937255 0.517647 0.937255 1
0.937255 0.517647 0.937255 1
0.937255 0.517647 0.937255 1
0.937255 0.517647 0.937255 1
0.937255 0.517647 0.937255 1
0.937255 0.517647 0.937255 1
0.937255 0.517647 0.937255 1
0.937255 0.517647 0.937255 1
0.937255 0.517647 0.937255 1
0.937255 0.517647 0.937255 1
0.937255 0.517647 0.937255 1
0.937255 0.517647 0.937255 1
0.937255 0.517647 0.937255 1
0.937255 0.517647 0.937255 1
0.937255 0.517647 0.937255 1
0.937255 0.517647 0.937255 1
0.937255 0.517647 0.937255 1
0.937255 0.517647 0.937255 1
0.937255 0.517647 0.937255 1
0.937255 0.517647 0.937255 1
0.937255 0.517647 0.937255 1
0.937255 0.517647 0.937255 1
0.937255 0.517647 0.937255 1
0.937255 0.517647 0.937255 1
0.937255 0.517647 0.937255 1
0.937255 0.517647 0.937255 1
0.937255 0.517647 0.937255 1
0.937255 0.517647 0.937255 1
0.937255 0.517647 0.937255 1
0.937255 0.517647 0.937255 1
0.937255 0.517647 0.937255 1
0.937255 0.517647 0.937255 1
0.937255 0.517647 0.937255 1
0.937255 0.517647 0.937255 1
0.937255 0.517647 0.937255 1
0.937255 0.517647 0.937255 1
0.937255 0.517647 0.937255 1
0.937255 0.517647 0.937255 1
0.937255 0.517647 0.937255 1
0.937255 0.517647 0.937255 1
0.937255 0.517647 0.937255 1
0.937255 0.517647 0.937255 1
0.937255 0.517647 0.937255 1
0.937255 0.517647 0.937255 1
0.937255 0.517647 0.937255 1
0.937255 0.517647 0.937255 1
0.937255 0.517647 0.937255 1
0.937255 0.517647 0.937255 1
0.937255 0.517647 0.937255 1
0.937255 0.517647 0.937255 1
0.937255 0.517647 0.937255 1
0.937255 0.517647 0.937255 1
0.937255 0.517647 0.937255 1
0.937255 0.517647 0.937255 1
0.937255 0.517647 0.937255 1
0.937255 0.517647 0.937255 1
0.937255 0.517647 0.937255 1
0.937255 0.517647 0.937255 1
0.937255 0.517647 0.937255 1
0.937255 0.517647 0.937255 1
0.937255 0.517647 0.937255 1
0.937255 0.517647 0.937255 1
0.937255 0.517647 0.937255 1
0.937255 0.517647 0.937255 1
0.937255 0.517647 0.937255 1
0.937255 0.517647 0.937255 1
0.937255 0.517647 0.937255 1
0.937255 0.517647 0.937255 1
0.937255 0.517647 0.937255 1
0.937255 0.517647 0.937255 1
0.937255 0.517647 0.937255 1
0.937255 0.517647 0.937255 1
0.937255 0.517647 0.937255 1
0.937255 0.517647 0.937255 1
0.937255 0.517647 0.937255 1
0.937255 0.517647 0.937255 1
0.937255 0.517647 0.937255 1
0.937255 0.517647 0.937255 1
0.937255 0.517647 0.937255 1
0.937255 0.517647 0.937255 1
0.937255 0.517647 0.937255 1
0.937255 0.517647 0.937255 1
0.937255 0.517647 0.937255 1
0.937255 0.517647 0.937255 1
0.937255 0.517647 0.937255 1
0.937255 0.517647 0.937255 1
0.937255 0.517647 0.937255 1
0.937255 0.517647 0.937255 1
0.937255 0.517647 0.937255 1
0.937255 0.517647 0.937255 1
0.937255 0.517647 0.937255 1
0.937255 0.517647 0.937255 1
0.937255 0.517647 0.937255 1
0.937255 0.517647 0.937255 1
0.937255 0.517647 0.937255 1
0.937255 0.517647 0.937255 1
0.937255 0.517647 0.937255 1
0.937255 0.517647 0.937255 1
0.937255 0.517647 0.937255 1
0.937255 0.517647 0.937255 1
0.937255 0.517647 0.937255 1
0.937255 0.517647 0.937255 1
0.937255 0.517647 0.937255 1
0.937255 0.517647 0.937255 1
0.937255 0.517647 0.937255 1
0.937255 0.517647 0.937255 1
0.937255 0.517647 0.937255 1
0.937255 0.517647 0.937255 1
0.937255 0.517647 0.937255 1
0.937255 0.517647 0.937255 1
0.937255 0.517647 0.937255 1
0.937255 0.517647 0.937255 1
0.937255 0.517647 0.937255 1
0.937255 0.517647 0.937255 1
0.937255 0.517647 0.937255 1
0.937255 0.517647 0.937255 1
0.937255 0.517647 0.937255 1
0.937255 0.517647 0.937255 1
0.937255 0.517647 0.937255 1
0.937255 0.517647 0.937255 1
0.937255 0.517647 0.937255 1
0.937255 0.517647 0.937255 1
0.937255 0.517647 0.937255 1
0.937255 0.517647 0.937255 1
0.937255 0.517647 0.937255 1
0.937255 0.517647 0.937255 1
0.937255 0.517647 0.937255 1
0.937255 0.517647 0.937255 1
0.937255 0.517647 0.937255 1
0.937255 0.517647 0.937255 1
0.937255 0.517647 0.937255 1
0.937255 0.517647 0.937255 1
0.937255 0.517647 0.937255 1
0.937255 0.517647 0.937255 1
0.937255 0.517647 0.937255 1
0.937255 0.517647 0.937255 1
0.937255 0.517647 0.937255 1
0.937255 0.517647 0.937255 1
0.937255 0.517647 0.937255 1
0.937255 0.517647 0.937255 1
0.937255 0.517647 0.937255 1
0.937255 0.517647 0.937255 1
0.937255 0.517647 0.937255 1
0.937255 0.517647 0.937255 1
0.937255 0.517647 0.937255 1
0.937255 0.517647 0.937255 1
0.937255 0.517647 0.937255 1
0.937255 0.517647 0.937255 1
0.937255 0.517647 0.937255 1
0.937255 0.517647 0.937255 1
0.937255 0.517647 0.937255 1
0.937255 0.517647 0.937255 1
0.937255 0.517647 0.937255 1
0.937255 0.517647 0.937255 1
0.937255 0.517647 0.937255 1
0.937255 0.517647 0.937255 1
0.937255 0.517647 0.937255 1
0.937255 0.517647 0.937255 1
0.937255 0.517647 0.937255 1
0.937255 0.517647 0.937255 1
0.937255 0.517647 0.937255 1
0.937255 0.517647 0.937255 1
0.937255 0.517647 0.937255 1
0.937255 0.517647 0.937255 1
0.937255 0.517647 0.937255 1
0.937255 0.517647 0.937255 1
0.937255 0.517647 0.937255 1
0.937255 0.517647 0.937255 1
0.937255 0.517647 0.937255 1
0.937255 0.517647 0.937255 1
0.937255 0.517647 0.937255 1
0.937255 0.517647 0.937255 1
0.937255 0.517647 0.937255 1
0.937255 0.517647 0.937255 1
0.937255 0.517647 0.937255 1
0.937255 0.517647 0.937255 1
0.937255 0.517647 0.937255 1
0.937255 0.517647 0.937255 1
0.937255 0.517647 0.937255 1
0.937255 0.517647 0.937255 1
0.937255 0.517647 0.937255 1
0.937255 0.517647 0.937255 1
0.937255 0.517647 0.937255 1
0.937255 0.517647 0.937255 1
0.937255 0.517647 0.937255 1
0.937255 0.517647 0.937255 1
0.937255 0.517647 0.937255 1
0.937255 0.517647 0.937255 1
0.937255 0.517647 0.937255 1
0.937255 0.517647 0.937255 1
0.937255 0.517647 0.937255 1
0.937255 0.517647 0.937255 1
0.937255 0.517647 0.937255 1
0.937255 0.517647 0.937255 1
0.937255 0.517647 0.937255 1
0.937255 0.517647 0.937255 1
0.937255 0.517647 0.937255 1
0.937255 0.517647 0.937255 1
0.937255 0.517647 0.937255 1
0.937255 0.517647 0.937255 1
0.937255 0.517647 0.937255 1
0.937255 0.517647 0.937255 1
0.937255 0.517647 0.937255 1
0.937255 0.517647 0.937255 1
0.937255 0.517647 0.937255 1
0.937255 0.517647 0.937255 1
0.937255 0.517647 0.937255 1
0.937255 0.517647 0.937255 1
0.937255 0.517647 0.937255 1
0.937255 0.517647 0.937255 1
0.937255 0.517647 0.937255 1
0.937255 0.517647 0.937255 1
0.937255 0.517647 0.937255 1
0.937255 0.517647 0.937255 1
0.937255 0.517647 0.937255 1
0.937255 0.517647 0.937255 1
0.937255 0.517647 0.937255 1
0.937255 0.517647 0.937255 1