# vtk DataFile Version 3.0
Gocad TSurf to VTK
ASCII
DATASET POLYDATA
POINTS 316 float
21514000.656 4542541.578 -4000.000
21514012.672 4542481.568 -3500.000
21513925.656 4542403.559 -3500.000
21514024.672 4542421.561 -3000.000
21513871.563 4542425.828 -4000.000
21514102.688 4542508.572 -3500.000
21514180.688 4542595.586 -4000.000
21514381.719 4542589.584 -3500.000
21513988.656 4542601.586 -4500.000
21513934.875 4542527.189 -4315.028
21514258.688 4542682.598 -4500.000
21514366.719 4542649.594 -4000.000
21513986.891 4542610.439 -4573.766
21513972.063 4542586.705 -4500.000
21514059.031 4542666.568 -4844.861
21514060.672 4542667.852 -4851.053
21514076.984 4542680.543 -4912.351
21514336.703 4542769.609 -5000.000
21514100.313 4542698.689 -5000.000
21514351.703 4542709.602 -4500.000
21514891.781 4542655.594 -4500.000
21514726.750 4542613.588 -4000.000
21515056.797 4542697.600 -5000.000
21515005.797 4542643.592 -4500.000
21514954.781 4542589.586 -4000.000
21515080.797 4542577.582 -4500.000
21515404.844 4542481.570 -5000.000
21515341.844 4542415.561 -4500.000
21515104.813 4542457.566 -4000.000
21515483.672 4542202.453 -4500.000
21515373.375 4542207.480 -4000.000
21515593.953 4542197.428 -5000.000
21515513.469 4542155.000 -4500.000
21515564.422 4542155.000 -4737.816
21515483.000 4542155.000 -4357.798
21515406.328 4542155.000 -4000.000
21515384.094 4542155.000 -3896.198
21515263.094 4542212.508 -3500.000
21515278.828 4542349.551 -4000.000
21515299.203 4542155.000 -3500.000
21515281.016 4542155.000 -3415.113
21515152.813 4542217.533 -3000.000
21515215.813 4542283.543 -3500.000
21515192.078 4542155.000 -3000.000
21515150.984 4542175.879 -2704.578
21515168.266 4542157.754 -2766.887
21515147.453 4542179.133 -2692.961
21515133.594 4542191.873 -2647.450
21515119.297 4542205.043 -2600.482
21515147.453 4542179.129 -2692.930
21515081.141 4542218.336 -2529.028
21515056.719 4542228.047 -2500.000
21515119.281 4542205.039 -2600.415
21514852.781 4542481.570 -3000.000
21514831.688 4542426.074 -2500.000
21515128.813 4542337.551 -3500.000
21514903.781 4542535.578 -3500.000
21514561.734 4542571.582 -3500.000
21514396.719 4542529.576 -3000.000
21514489.641 4542462.078 -2500.000
21514382.875 4542465.680 -2500.000
21514369.031 4542401.781 -2000.000
21514103.844 4542384.668 -2500.000
21514183.016 4542347.773 -2000.000
21514051.594 4542375.066 -2500.000
21514078.500 4542328.574 -2000.000
21513979.578 4542315.059 -2500.000
21513782.500 4542155.000 -2801.375
21513819.516 4542155.000 -2500.000
21513758.094 4542155.000 -3000.000
21513733.969 4542155.000 -3148.975
21513761.594 4542221.010 -3385.910
21513729.375 4542155.000 -3177.323
21513775.141 4542248.783 -3473.675
21513779.203 4542257.115 -3500.000
21513784.156 4542267.250 -3532.016
21513790.719 4542280.711 -3574.554
21513841.344 4542375.395 -3846.586
21513848.938 4542389.607 -3887.425
21513855.141 4542155.000 -2209.856
21513876.422 4542169.363 -2153.572
21513856.578 4542155.000 -2198.189
21513876.438 4542169.371 -2153.549
21513889.203 4542178.615 -2124.835
21513902.484 4542188.238 -2094.947
21513938.172 4542217.313 -2041.110
21513954.094 4542227.857 -2021.377
21513971.344 4542239.279 -2000.000
21513998.250 4542252.314 -1931.893
21514008.453 4542257.260 -1906.059
21514094.563 4542300.816 -1701.488
21514112.969 4542303.000 -1689.852
21514132.922 4542305.367 -1677.239
21514147.172 4542307.059 -1668.229
21514160.250 4542308.727 -1661.106
21514231.188 4542317.783 -1622.448
21514234.391 4542318.191 -1620.707
21514243.688 4542319.504 -1616.858
21514248.453 4542320.693 -1615.236
21514241.141 4542319.053 -1617.029
21514284.219 4542329.619 -1603.069
21514312.172 4542336.598 -1593.557
21514357.359 4542347.877 -1578.183
21514582.563 4542394.582 -2000.000
21514400.281 4542349.127 -1599.136
21514635.703 4542355.984 -1714.073
21514685.750 4542354.719 -1748.747
21514746.078 4542353.191 -1790.544
21514749.641 4542353.615 -1797.459
21514753.813 4542354.111 -1805.554
21514756.875 4542354.477 -1811.516
21514762.750 4542355.176 -1822.934
21514810.594 4542370.578 -2000.000
21514762.734 4542355.174 -1822.915
21514793.375 4542358.822 -1882.457
21514806.734 4542360.412 -1908.403
21514815.969 4542357.936 -1946.616
21514816.234 4542357.865 -1947.689
21514821.859 4542356.357 -1970.954
21514828.891 4542354.477 -2000.000
21514892.656 4542337.398 -2263.551
21514898.297 4542335.889 -2286.858
21514923.297 4542318.871 -2320.495
21515170.891 4542155.000 -2776.353
21515589.563 4542155.000 -5000.000
21513944.938 4542543.299 -4365.094
21513923.641 4542509.195 -4259.109
21513952.906 4542155.000 -1500.000
21513911.797 4542155.000 -1748.565
21514105.406 4542282.080 -1500.000
21513934.469 4542208.557 -2000.000
21513985.703 4542155.000 -1301.749
21514132.328 4542235.586 -1000.000
21514262.188 4542310.881 -1500.000
21514035.625 4542155.000 -1000.000
21514065.328 4542155.000 -741.336
21514102.625 4542181.908 -697.684
21514111.563 4542186.480 -697.877
21514070.328 4542155.000 -697.684
21514087.734 4542155.000 -546.135
21514095.484 4542155.000 -515.249
21514098.266 4542155.000 -504.192
21514109.313 4542155.000 -460.175
21514120.516 4542191.053 -698.070
21514110.953 4542155.000 -453.637
21514125.297 4542155.000 -396.499
21514126.594 4542155.664 -396.527
21514129.469 4542195.625 -698.263
21514126.547 4542155.000 -391.513
21514127.203 4542155.000 -388.907
21514144.484 4542164.809 -396.913
21514146.172 4542155.000 -313.335
21514166.672 4542155.000 -282.225
21514219.219 4542155.000 -202.478
21514249.000 4542184.010 -396.913
21514138.406 4542200.197 -698.457
21514231.063 4542155.000 -117.717
21514266.891 4542193.154 -397.300
21514295.188 4542229.000 -698.457
21514231.734 4542155.000 -112.814
21514261.484 4542155.000 -111.664
21514287.906 4542193.240 -397.132
21514304.125 4542233.570 -698.650
21514262.594 4542155.000 -111.621
21514292.469 4542155.000 -110.467
21514308.922 4542193.326 -396.963
21514314.625 4542233.613 -698.566
21514293.516 4542155.000 -110.426
21514323.500 4542155.000 -109.267
21514329.938 4542193.412 -396.795
21514325.141 4542233.656 -698.482
21514324.484 4542155.000 -109.229
21514350.953 4542193.500 -396.626
21514346.156 4542233.744 -698.313
21514325.453 4542155.000 -109.191
21514355.547 4542155.000 -108.028
21514371.969 4542193.586 -396.458
21514356.656 4542233.787 -698.229
21514356.453 4542155.000 -107.993
21514386.672 4542155.000 -106.826
21514392.984 4542193.672 -396.290
21514367.172 4542233.830 -698.145
21514387.516 4542155.000 -106.793
21514417.844 4542155.000 -105.621
21514510.141 4542155.000 -129.531
21514536.828 4542155.000 -136.444
21514606.500 4542186.471 -396.290
21514574.875 4542155.000 -201.870
21514627.625 4542178.162 -395.630
21514687.453 4542223.029 -698.145
21514587.594 4542155.000 -223.713
21514610.781 4542155.000 -263.688
21514648.766 4542169.854 -395.145
21514698.016 4542218.875 -697.815
21514628.953 4542155.000 -295.024
21514641.469 4542155.000 -316.676
21514669.891 4542161.543 -394.846
21514708.594 4542214.721 -697.572
21514663.313 4542155.000 -354.460
21514668.016 4542155.000 -362.599
21514686.531 4542155.000 -394.611
21514719.156 4542210.566 -697.423
21514691.891 4542155.000 -403.875
21514729.719 4542206.412 -697.274
21514768.406 4542259.588 -1000.000
21514692.313 4542155.000 -404.598
21514715.031 4542155.000 -443.898
21514740.281 4542202.258 -697.124
21514717.094 4542155.000 -447.469
21514774.844 4542155.000 -566.559
21514838.156 4542155.000 -697.124
21514871.875 4542155.000 -766.688
21514985.016 4542155.000 -1000.000
21514864.500 4542249.074 -1500.000
21514789.500 4542315.084 -1500.000
21515026.969 4542170.633 -1500.000
21514960.609 4542238.561 -2000.000
21515038.047 4542155.000 -1500.000
21515046.844 4542155.000 -1583.070
21515068.906 4542186.266 -2000.000
21515091.063 4542155.000 -2000.000
21515126.547 4542155.000 -2334.741
21515133.313 4542155.000 -2398.487
21515110.859 4542201.900 -2500.000
21515056.719 4542228.047 -2500.000
21515144.078 4542155.000 -2500.000
21515119.281 4542205.039 -2600.415
21515081.141 4542218.336 -2529.028
21515133.594 4542191.873 -2647.450
21515119.297 4542205.043 -2600.482
21515147.453 4542179.129 -2692.930
21515150.063 4542155.000 -2556.490
21515147.453 4542179.133 -2692.961
21515150.984 4542175.879 -2704.578
21515168.266 4542157.754 -2766.887
21515170.891 4542155.000 -2776.353
21514923.297 4542318.871 -2320.495
21514892.656 4542337.398 -2263.551
21514898.297 4542335.889 -2286.858
21514828.891 4542354.477 -2000.000
21514821.859 4542356.357 -1970.954
21514816.234 4542357.865 -1947.689
21514815.969 4542357.936 -1946.616
21514806.734 4542360.412 -1908.403
21514793.375 4542358.822 -1882.457
21514762.734 4542355.174 -1822.915
21514675.484 4542327.086 -1500.000
21514762.750 4542355.176 -1822.934
21514756.875 4542354.477 -1811.516
21514341.359 4542273.988 -1000.000
21514355.203 4542337.885 -1500.000
21514335.656 4542233.699 -698.397
21514312.172 4542336.598 -1593.557
21514284.219 4542329.619 -1603.069
21514357.359 4542347.877 -1578.183
21514400.281 4542349.127 -1599.136
21514635.703 4542355.984 -1714.073
21514685.750 4542354.719 -1748.747
21514746.078 4542353.191 -1790.544
21514749.641 4542353.615 -1797.459
21514753.813 4542354.111 -1805.554
21514248.453 4542320.693 -1615.236
21514243.688 4542319.504 -1616.858
21514241.141 4542319.053 -1617.029
21514234.391 4542318.191 -1620.707
21514231.188 4542317.783 -1622.448
21514160.250 4542308.727 -1661.106
21514147.172 4542307.059 -1668.229
21514132.922 4542305.367 -1677.239
21514112.969 4542303.000 -1689.852
21514094.563 4542300.816 -1701.488
21514008.453 4542257.260 -1906.059
21513998.250 4542252.314 -1931.893
21513971.344 4542239.279 -2000.000
21513954.094 4542227.857 -2021.377
21513938.172 4542217.313 -2041.110
21513902.484 4542188.238 -2094.947
21513889.203 4542178.615 -2124.835
21513876.438 4542169.371 -2153.549
21513861.859 4542155.000 -2155.205
21513856.578 4542155.000 -2198.189
21513880.906 4542155.000 -2000.000
21513876.422 4542169.363 -2153.572
21514076.984 4542680.543 -4912.351
21513976.656 4542661.594 -5000.000
21514100.313 4542698.689 -5000.000
21514060.672 4542667.852 -4851.053
21514059.031 4542666.568 -4844.861
21513986.891 4542610.439 -4573.766
21513727.625 4542367.553 -4500.000
21513628.609 4542349.551 -5000.000
21513972.063 4542586.705 -4500.000
21513944.938 4542543.299 -4365.094
21513826.641 4542385.555 -4000.000
21513640.609 4542199.531 -4000.000
21513934.875 4542527.189 -4315.028
21513923.641 4542509.195 -4259.109
21513871.563 4542425.828 -4000.000
21513848.938 4542389.607 -3887.425
21513841.344 4542375.395 -3846.586
21513667.625 4542155.000 -3558.381
21513790.719 4542280.711 -3574.554
21513644.172 4542155.000 -3703.164
21513623.984 4542155.000 -3889.241
21513611.984 4542155.000 -4000.000
21513634.609 4542274.541 -4500.000
21513577.578 4542155.000 -4317.240
21513557.766 4542155.000 -4500.000
21513526.828 4542155.000 -4785.292
21513503.547 4542155.000 -5000.000
21513784.156 4542267.250 -3532.016
21513677.094 4542155.000 -3500.000
21513779.203 4542257.115 -3500.000
21513775.141 4542248.783 -3473.675
21513761.594 4542221.010 -3385.910
21513729.375 4542155.000 -3177.323

POLYGONS 401 1604
3 8 6 0
3 26 27 25
3 77 2 76
3 67 3 66
3 93 92 63
3 46 49 47
3 59 61 60
3 80 81 79
3 109 108 103
3 121 120 54
3 0 6 5
3 108 107 103
3 100 98 63
3 14 10 12
3 27 29 30
3 26 31 29
3 33 31 124
3 85 84 66
3 19 21 11
3 5 3 1
3 22 26 25
3 34 30 29
3 107 106 103
3 87 66 65
3 56 53 57
3 122 121 54
3 23 24 20
3 25 27 28
3 27 30 38
3 62 60 63
3 119 112 54
3 24 21 20
3 10 14 15
3 28 24 25
3 116 115 112
3 19 20 21
3 8 9 125
3 94 93 63
3 12 8 13
3 97 99 96
3 39 40 37
3 44 41 43
3 48 50 41
3 8 10 6
3 28 38 55
3 111 110 103
3 8 0 9
3 32 29 31
3 75 2 74
3 63 65 62
3 2 78 4
3 17 19 10
3 11 7 6
3 25 24 23
3 26 29 27
3 106 105 103
3 97 96 63
3 84 83 66
3 69 70 3
3 44 46 41
3 40 43 41
3 46 47 41
3 70 2 3
3 60 61 63
3 17 22 20
3 98 97 63
3 2 70 71
3 92 91 63
3 83 82 66
3 53 58 57
3 53 41 51
3 7 5 6
3 104 102 103
3 2 71 73
3 90 89 65
3 53 51 54
3 45 44 43
3 28 56 24
3 24 56 21
3 51 122 54
3 13 8 125
3 3 62 64
3 17 20 19
3 56 57 21
3 48 52 50
3 17 10 16
3 37 41 42
3 102 101 61
3 53 54 59
3 68 67 66
3 103 61 59
3 57 58 7
3 1 3 2
3 58 3 7
3 27 38 28
3 105 104 103
3 110 109 103
3 91 90 63
3 82 80 66
3 3 58 62
3 119 118 112
3 45 43 123
3 19 11 10
3 58 59 60
3 38 30 37
3 66 80 79
3 117 116 112
3 50 51 41
3 36 37 30
3 87 86 66
3 32 34 29
3 34 35 30
3 112 111 103
3 102 61 103
3 101 100 61
3 10 15 16
3 9 0 126
3 96 95 63
3 54 112 103
3 47 48 41
3 89 88 65
3 58 60 62
3 35 36 30
3 67 69 3
3 38 37 42
3 2 73 74
3 42 41 55
3 90 65 63
3 11 21 57
3 118 117 112
3 114 111 112
3 11 57 7
3 120 119 54
3 61 100 63
3 62 65 64
3 36 39 37
3 3 64 66
3 0 5 1
3 58 53 59
3 40 41 37
3 0 2 4
3 70 72 71
3 59 54 103
3 79 68 66
3 2 75 76
3 22 25 23
3 88 87 65
3 33 32 31
3 38 42 55
3 7 3 5
3 55 53 56
3 64 65 66
3 10 8 12
3 2 77 78
3 0 1 2
3 115 114 112
3 126 0 4
3 111 113 110
3 22 23 20
3 86 85 66
3 41 53 55
3 55 56 28
3 95 94 63
3 11 6 10
3 18 17 16
3 219 215 216
3 175 172 176
3 197 192 193
3 187 186 188
3 181 186 180
3 164 161 165
3 213 240 239
3 147 146 143
3 218 215 219
3 250 133 252
3 154 153 150
3 213 241 240
3 246 258 259
3 276 130 277
3 218 217 215
3 150 146 147
3 190 187 188
3 161 157 162
3 250 254 255
3 244 214 245
3 249 162 158
3 191 188 192
3 216 213 239
3 132 249 158
3 166 161 162
3 251 169 170
3 132 137 136
3 206 205 203
3 254 250 252
3 192 188 193
3 223 219 224
3 162 157 158
3 187 185 186
3 249 189 181
3 129 267 266
3 181 176 177
3 200 199 196
3 170 165 166
3 155 158 154
3 181 189 186
3 132 131 129
3 142 141 137
3 132 155 147
3 206 203 207
3 128 130 129
3 267 129 268
3 160 159 157
3 135 134 132
3 208 206 207
3 199 198 196
3 249 251 170
3 172 169 173
3 246 257 258
3 134 131 132
3 212 211 204
3 130 279 278
3 165 161 166
3 135 132 136
3 133 129 266
3 141 140 137
3 265 133 266
3 129 130 271
3 213 204 214
3 227 223 224
3 221 220 219
3 182 179 180
3 149 146 150
3 177 172 173
3 204 201 197
3 278 280 282
3 167 164 165
3 168 167 165
3 216 236 224
3 204 193 189
3 152 151 150
3 204 203 201
3 216 237 236
3 153 152 150
3 214 246 245
3 246 249 250
3 213 214 243
3 249 132 133
3 214 204 246
3 132 143 137
3 260 246 259
3 249 204 189
3 256 246 255
3 209 208 207
3 142 137 143
3 200 196 201
3 155 154 150
3 210 207 204
3 160 157 161
3 204 197 193
3 186 185 180
3 183 182 180
3 139 138 136
3 133 264 263
3 216 239 237
3 133 253 252
3 225 226 228
3 205 202 203
3 171 168 169
3 213 243 242
3 128 281 130
3 249 177 173
3 168 165 169
3 204 249 246
3 213 242 241
3 144 142 143
3 225 222 223
3 196 192 197
3 219 216 224
3 281 279 130
3 231 225 230
3 217 212 215
3 156 154 157
3 180 176 181
3 193 188 189
3 204 207 203
3 195 192 196
3 157 154 158
3 211 210 204
3 264 133 265
3 214 244 243
3 155 150 147
3 171 169 172
3 164 163 161
3 188 186 189
3 246 248 245
3 131 127 129
3 225 223 226
3 194 191 192
3 179 176 180
3 174 171 172
3 156 153 154
3 163 160 161
3 176 172 177
3 145 144 143
3 233 231 232
3 185 184 180
3 130 272 271
3 148 145 146
3 249 181 177
3 270 129 271
3 132 147 143
3 132 158 155
3 222 219 223
3 195 194 192
3 250 249 133
3 130 276 275
3 138 135 136
3 151 149 150
3 269 129 270
3 202 201 203
3 223 227 226
3 140 139 136
3 231 230 232
3 268 129 269
3 235 231 234
3 173 169 251
3 202 200 201
3 133 263 262
3 222 221 219
3 145 143 146
3 210 209 207
3 127 128 129
3 133 132 129
3 246 250 255
3 149 148 146
3 261 133 262
3 226 229 228
3 220 218 219
3 248 246 260
3 184 183 180
3 249 170 166
3 212 204 213
3 245 247 244
3 175 174 172
3 140 136 137
3 159 156 157
3 179 178 176
3 191 190 188
3 225 228 230
3 130 274 273
3 133 261 253
3 169 165 170
3 198 195 196
3 257 246 256
3 274 130 275
3 130 273 272
3 249 173 251
3 215 212 213
3 231 233 234
3 215 213 216
3 201 196 197
3 277 130 278
3 238 236 237
3 178 175 176
3 249 166 162
3 278 279 280
3 310 312 311
3 302 303 294
3 300 310 311
3 297 298 293
3 288 289 284
3 293 299 300
3 283 284 285
3 283 286 284
3 294 304 305
3 314 315 311
3 307 308 290
3 305 307 290
3 302 294 293
3 289 294 305
3 304 306 305
3 293 294 289
3 290 289 305
3 290 284 289
3 292 295 293
3 312 313 311
3 296 297 293
3 292 293 289
3 299 301 300
3 286 287 284
3 303 304 294
3 295 296 293
3 298 299 293
3 308 309 290
3 291 292 289
3 300 302 293
3 313 314 311
3 306 307 305
3 287 288 284
3 288 291 289
3 301 310 300

POINT_DATA 316
COLOR_SCALARS GocadColor 4
0.854902 0.666667 0 1
0.854902 0.666667 0 1
0.854902 0.666667 0 1
0.854902 0.666667 0 1
0.854902 0.666667 0 1
0.854902 0.666667 0 1
0.854902 0.666667 0 1
0.854902 0.666667 0 1
0.854902 0.666667 0 1
0.854902 0.666667 0 1
0.854902 0.666667 0 1
0.854902 0.666667 0 1
0.854902 0.666667 0 1
0.854902 0.666667 0 1
0.854902 0.666667 0 1
0.854902 0.666667 0 1
0.854902 0.666667 0 1
0.854902 0.666667 0 1
0.854902 0.666667 0 1
0.854902 0.666667 0 1
0.854902 0.666667 0 1
0.854902 0.666667 0 1
0.854902 0.666667 0 1
0.854902 0.666667 0 1
0.854902 0.666667 0 1
0.854902 0.666667 0 1
0.854902 0.666667 0 1
0.854902 0.666667 0 1
0.854902 0.666667 0 1
0.854902 0.666667 0 1
0.854902 0.666667 0 1
0.854902 0.666667 0 1
0.854902 0.666667 0 1
0.854902 0.666667 0 1
0.854902 0.666667 0 1
0.854902 0.666667 0 1
0.854902 0.666667 0 1
0.854902 0.666667 0 1
0.854902 0.666667 0 1
0.854902 0.666667 0 1
0.854902 0.666667 0 1
0.854902 0.666667 0 1
0.854902 0.666667 0 1
0.854902 0.666667 0 1
0.854902 0.666667 0 1
0.854902 0.666667 0 1
0.854902 0.666667 0 1
0.854902 0.666667 0 1
0.854902 0.666667 0 1
0.854902 0.666667 0 1
0.854902 0.666667 0 1
0.854902 0.666667 0 1
0.854902 0.666667 0 1
0.854902 0.666667 0 1
0.854902 0.666667 0 1
0.854902 0.666667 0 1
0.854902 0.666667 0 1
0.854902 0.666667 0 1
0.854902 0.666667 0 1
0.854902 0.666667 0 1
0.854902 0.666667 0 1
0.854902 0.666667 0 1
0.854902 0.666667 0 1
0.854902 0.666667 0 1
0.854902 0.666667 0 1
0.854902 0.666667 0 1
0.854902 0.666667 0 1
0.854902 0.666667 0 1
0.854902 0.666667 0 1
0.854902 0.666667 0 1
0.854902 0.666667 0 1
0.854902 0.666667 0 1
0.854902 0.666667 0 1
0.854902 0.666667 0 1
0.854902 0.666667 0 1
0.854902 0.666667 0 1
0.854902 0.666667 0 1
0.854902 0.666667 0 1
0.854902 0.666667 0 1
0.854902 0.666667 0 1
0.854902 0.666667 0 1
0.854902 0.666667 0 1
0.854902 0.666667 0 1
0.854902 0.666667 0 1
0.854902 0.666667 0 1
0.854902 0.666667 0 1
0.854902 0.666667 0 1
0.854902 0.666667 0 1
0.854902 0.666667 0 1
0.854902 0.666667 0 1
0.854902 0.666667 0 1
0.854902 0.666667 0 1
0.854902 0.666667 0 1
0.854902 0.666667 0 1
0.854902 0.666667 0 1
0.854902 0.666667 0 1
0.854902 0.666667 0 1
0.854902 0.666667 0 1
0.854902 0.666667 0 1
0.854902 0.666667 0 1
0.854902 0.666667 0 1
0.854902 0.666667 0 1
0.854902 0.666667 0 1
0.854902 0.666667 0 1
0.854902 0.666667 0 1
0.854902 0.666667 0 1
0.854902 0.666667 0 1
0.854902 0.666667 0 1
0.854902 0.666667 0 1
0.854902 0.666667 0 1
0.854902 0.666667 0 1
0.854902 0.666667 0 1
0.854902 0.666667 0 1
0.854902 0.666667 0 1
0.854902 0.666667 0 1
0.854902 0.666667 0 1
0.854902 0.666667 0 1
0.854902 0.666667 0 1
0.854902 0.666667 0 1
0.854902 0.666667 0 1
0.854902 0.666667 0 1
0.854902 0.666667 0 1
0.854902 0.666667 0 1
0.854902 0.666667 0 1
0.854902 0.666667 0 1
0.854902 0.666667 0 1
0.854902 0.666667 0 1
0.854902 0.666667 0 1
0.854902 0.666667 0 1
0.854902 0.666667 0 1
0.854902 0.666667 0 1
0.854902 0.666667 0 1
0.854902 0.666667 0 1
0.854902 0.666667 0 1
0.854902 0.666667 0 1
0.854902 0.666667 0 1
0.854902 0.666667 0 1
0.854902 0.666667 0 1
0.854902 0.666667 0 1
0.854902 0.666667 0 1
0.854902 0.666667 0 1
0.854902 0.666667 0 1
0.854902 0.666667 0 1
0.854902 0.666667 0 1
0.854902 0.666667 0 1
0.854902 0.666667 0 1
0.854902 0.666667 0 1
0.854902 0.666667 0 1
0.854902 0.666667 0 1
0.854902 0.666667 0 1
0.854902 0.666667 0 1
0.854902 0.666667 0 1
0.854902 0.666667 0 1
0.854902 0.666667 0 1
0.854902 0.666667 0 1
0.854902 0.666667 0 1
0.854902 0.666667 0 1
0.854902 0.666667 0 1
0.854902 0.666667 0 1
0.854902 0.666667 0 1
0.854902 0.666667 0 1
0.854902 0.666667 0 1
0.854902 0.666667 0 1
0.854902 0.666667 0 1
0.854902 0.666667 0 1
0.854902 0.666667 0 1
0.854902 0.666667 0 1
0.854902 0.666667 0 1
0.854902 0.666667 0 1
0.854902 0.666667 0 1
0.854902 0.666667 0 1
0.854902 0.666667 0 1
0.854902 0.666667 0 1
0.854902 0.666667 0 1
0.854902 0.666667 0 1
0.854902 0.666667 0 1
0.854902 0.666667 0 1
0.854902 0.666667 0 1
0.854902 0.666667 0 1
0.854902 0.666667 0 1
0.854902 0.666667 0 1
0.854902 0.666667 0 1
0.854902 0.666667 0 1
0.854902 0.666667 0 1
0.854902 0.666667 0 1
0.854902 0.666667 0 1
0.854902 0.666667 0 1
0.854902 0.666667 0 1
0.854902 0.666667 0 1
0.854902 0.666667 0 1
0.854902 0.666667 0 1
0.854902 0.666667 0 1
0.854902 0.666667 0 1
0.854902 0.666667 0 1
0.854902 0.666667 0 1
0.854902 0.666667 0 1
0.854902 0.666667 0 1
0.854902 0.666667 0 1
0.854902 0.666667 0 1
0.854902 0.666667 0 1
0.854902 0.666667 0 1
0.854902 0.666667 0 1
0.854902 0.666667 0 1
0.854902 0.666667 0 1
0.854902 0.666667 0 1
0.854902 0.666667 0 1
0.854902 0.666667 0 1
0.854902 0.666667 0 1
0.854902 0.666667 0 1
0.854902 0.666667 0 1
0.854902 0.666667 0 1
0.854902 0.666667 0 1
0.854902 0.666667 0 1
0.854902 0.666667 0 1
0.854902 0.666667 0 1
0.854902 0.666667 0 1
0.854902 0.666667 0 1
0.854902 0.666667 0 1
0.854902 0.666667 0 1
0.854902 0.666667 0 1
0.854902 0.666667 0 1
0.854902 0.666667 0 1
0.854902 0.666667 0 1
0.854902 0.666667 0 1
0.854902 0.666667 0 1
0.854902 0.666667 0 1
0.854902 0.666667 0 1
0.854902 0.666667 0 1
0.854902 0.666667 0 1
0.854902 0.666667 0 1
0.854902 0.666667 0 1
0.854902 0.666667 0 1
0.854902 0.666667 0 1
0.854902 0.666667 0 1
0.854902 0.666667 0 1
0.854902 0.666667 0 1
0.854902 0.666667 0 1
0.854902 0.666667 0 1
0.854902 0.666667 0 1
0.854902 0.666667 0 1
0.854902 0.666667 0 1
0.854902 0.666667 0 1
0.854902 0.666667 0 1
0.854902 0.666667 0 1
0.854902 0.666667 0 1
0.854902 0.666667 0 1
0.854902 0.666667 0 1
0.854902 0.666667 0 1
0.854902 0.666667 0 1
0.854902 0.666667 0 1
0.854902 0.666667 0 1
0.854902 0.666667 0 1
0.854902 0.666667 0 1
0.854902 0.666667 0 1
0.854902 0.666667 0 1
0.854902 0.666667 0 1
0.854902 0.666667 0 1
0.854902 0.666667 0 1
0.854902 0.666667 0 1
0.854902 0.666667 0 1
0.854902 0.666667 0 1
0.854902 0.666667 0 1
0.854902 0.666667 0 1
0.854902 0.666667 0 1
0.854902 0.666667 0 1
0.854902 0.666667 0 1
0.854902 0.666667 0 1
0.854902 0.666667 0 1
0.854902 0.666667 0 1
0.854902 0.666667 0 1
0.854902 0.666667 0 1
0.854902 0.666667 0 1
0.854902 0.666667 0 1
0.854902 0.666667 0 1
0.854902 0.666667 0 1
0.854902 0.666667 0 1
0.854902 0.666667 0 1
0.854902 0.666667 0 1
0.854902 0.666667 0 1
0.854902 0.666667 0 1
0.854902 0.666667 0 1
0.854902 0.666667 0 1
0.854902 0.666667 0 1
0.854902 0.666667 0 1
0.854902 0.666667 0 1
0.854902 0.666667 0 1
0.854902 0.666667 0 1
0.854902 0.666667 0 1
0.854902 0.666667 0 1
0.854902 0.666667 0 1
0.854902 0.666667 0 1
0.854902 0.666667 0 1
0.854902 0.666667 0 1
0.854902 0.666667 0 1
0.854902 0.666667 0 1
0.854902 0.666667 0 1
0.854902 0.666667 0 1
0.854902 0.666667 0 1
0.854902 0.666667 0 1
0.854902 0.666667 0 1
0.854902 0.666667 0 1
0.854902 0.666667 0 1
0.854902 0.666667 0 1
0.854902 0.666667 0 1
0.854902 0.666667 0 1
0.854902 0.666667 0 1
0.854902 0.666667 0 1
0.854902 0.666667 0 1
0.854902 0.666667 0 1
0.854902 0.666667 0 1
0.854902 0.666667 0 1
0.854902 0.666667 0 1
0.854902 0.666667 0 1
0.854902 0.666667 0 1
0.854902 0.666667 0 1
0.854902 0.666667 0 1

