# vtk DataFile Version 3.0
Gocad TSurf to VTK
ASCII
DATASET POLYDATA
POINTS 378 float
21573818.422 4542905.086 561.753
21573829.500 4542857.418 566.235
21573775.453 4542892.777 149.676
21573840.578 4542809.750 570.717
21573786.719 4542950.902 146.315
21573844.531 4542991.129 -269.124
21573855.469 4542896.961 562.147
21573914.828 4542929.828 147.200
21573892.516 4542888.840 562.540
21573929.563 4542880.715 562.933
21573977.594 4542869.449 563.514
21574059.563 4542896.719 148.870
21574021.016 4542951.695 -267.099
21574025.641 4542858.184 564.095
21574073.672 4542846.918 564.676
21574122.531 4542836.566 565.160
21574278.000 4542852.594 149.352
21574171.406 4542826.215 565.803
21574220.266 4542815.867 566.520
21574269.125 4542805.516 567.237
21574424.594 4542821.543 151.504
21574433.469 4542868.625 -266.381
21574318.000 4542795.164 567.955
21574366.859 4542784.813 568.672
21574415.719 4542774.461 569.390
21574497.891 4542806.016 152.580
21574677.781 4542816.871 -262.794
21574464.594 4542764.109 570.107
21574513.453 4542753.760 570.824
21574562.328 4542743.410 571.542
21574607.844 4542782.727 154.194
21574611.188 4542733.059 572.259
21574660.047 4542722.707 572.977
21574754.438 4542751.674 156.347
21574708.922 4542712.357 573.694
21574757.781 4542702.006 574.411
21574806.641 4542691.654 575.129
21574953.297 4542715.945 156.885
21574855.516 4542681.305 575.846
21574904.375 4542670.953 576.564
21575061.266 4542701.877 157.655
21575123.063 4542741.207 -261.564
21574951.922 4542666.752 576.718
21574999.469 4542662.549 576.873
21575047.016 4542658.348 577.027
21575094.563 4542654.146 577.182
21575239.563 4542686.121 167.848
21575142.109 4542649.943 581.505
21575189.656 4542645.742 585.984
21575237.203 4542641.541 590.464
21575310.891 4542679.818 174.569
21575432.125 4542713.895 -236.847
21575284.750 4542637.338 594.945
21575332.313 4542633.137 599.426
21575379.859 4542628.934 603.906
21575427.406 4542624.732 608.386
21575453.531 4542667.211 188.010
21575474.953 4542620.531 612.866
21575522.500 4542616.328 617.346
21575570.047 4542612.127 621.826
21575617.594 4542607.926 626.306
21575745.797 4542638.537 194.730
21575665.141 4542603.723 630.786
21575712.688 4542599.521 635.266
21575927.781 4542615.346 212.821
21575874.000 4542669.148 -236.847
21575761.875 4542592.016 640.320
21575811.063 4542584.510 645.374
21575860.250 4542577.004 650.428
21575964.688 4542609.715 216.612
21576213.594 4542608.684 -200.805
21575909.438 4542569.498 655.483
21575958.641 4542561.994 660.538
21576007.828 4542554.488 665.592
21576057.016 4542546.982 670.646
21576184.500 4542570.328 239.975
21576106.203 4542539.477 675.700
21576155.391 4542531.971 680.754
21576202.531 4542516.980 686.633
21576255.203 4542547.840 248.792
21576249.656 4542501.990 692.511
21576296.797 4542486.998 698.390
21576443.359 4542505.777 257.610
21576343.938 4542472.008 704.269
21576391.063 4542457.018 710.146
21576478.719 4542494.535 262.019
21576519.234 4542547.043 -191.987
21576438.203 4542442.027 716.025
21576485.328 4542427.037 721.810
21576620.125 4542449.563 277.546
21576825.031 4542516.938 -177.667
21576532.469 4542412.047 726.783
21576579.609 4542397.055 731.756
21576626.734 4542382.064 736.728
21576673.875 4542367.074 741.701
21576833.656 4542454.908 284.612
21576722.000 4542374.447 743.184
21576770.109 4542381.818 744.667
21576818.234 4542389.191 746.149
21576913.891 4542360.602 299.181
21576849.094 4542520.625 -176.925
21576830.594 4542346.748 753.557
21576842.953 4542304.305 760.965
21576884.188 4542289.551 765.575
21576975.750 4542338.471 306.735
21576925.422 4542274.799 770.537
21576966.656 4542260.045 775.646
21577037.594 4542316.342 314.399
21577007.891 4542245.293 780.756
21577049.125 4542230.539 785.865
21577140.578 4542290.734 315.122
21577094.719 4542385.074 -156.586
21577094.891 4542219.158 790.748
21577140.672 4542207.777 790.252
21577186.438 4542196.396 786.829
21577280.422 4542243.189 315.122
21577232.203 4542185.016 783.406
21577383.406 4542217.582 307.419
21577397.281 4542284.293 -158.297
21577277.984 4542173.635 779.981
21577323.750 4542162.254 776.558
21577352.922 4542155.000 774.376
21577370.375 4542155.000 744.323
21577417.719 4542209.047 304.851
21577372.938 4542155.000 739.914
21577415.828 4542155.000 666.067
21577446.656 4542155.000 612.988
21577469.891 4542155.000 572.996
21577555.031 4542174.904 294.581
21577511.719 4542255.840 -166.856
21577532.734 4542155.000 464.809
21577538.531 4542155.000 454.805
21577554.328 4542155.000 427.609
21577565.688 4542155.000 408.061
21577616.766 4542155.000 292.213
21577680.719 4542155.000 147.182
21577798.375 4542155.000 -173.688
21577582.813 4542308.324 -636.852
21577798.703 4542155.000 -174.398
21577799.641 4542155.000 -176.920
21577887.906 4542188.016 -637.707
21577562.359 4542383.570 -1100.000
21577903.328 4542155.000 -587.638
21577912.547 4542155.000 -636.668
21577986.266 4542155.000 -994.281
21577953.906 4542226.951 -1100.000
21577987.516 4542155.000 -1000.000
21578009.500 4542155.000 -1100.000
21578048.000 4542155.000 -1198.949
21578126.203 4542155.000 -1400.000
21578096.531 4542193.391 -1400.000
21578239.172 4542155.000 -1690.409
21578239.172 4542159.828 -1700.000
21577965.094 4542322.041 -1700.000
21578241.656 4542155.000 -1700.000
21578244.594 4542155.000 -1706.999
21578236.672 4542155.000 -1766.977
21577872.797 4542408.740 -2000.000
21578205.922 4542155.000 -2000.000
21578054.594 4542442.301 -2525.000
21577114.875 4542786.305 -2300.000
21578299.203 4542155.000 -2216.820
21578502.500 4542155.000 -2525.000
21578545.672 4542155.000 -2595.019
21578406.969 4542305.262 -2750.000
21578132.906 4542467.473 -2750.000
21578598.563 4542155.000 -2750.000
21578648.844 4542155.000 -2897.421
21578348.250 4542411.537 -2975.000
21578675.328 4542155.000 -2975.000
21578733.047 4542155.000 -3144.168
21578289.516 4542517.814 -3200.000
21578752.094 4542155.000 -3200.000
21578772.984 4542155.000 -3291.615
21578432.406 4542486.211 -3650.000
21578208.656 4542626.049 -3650.000
21578854.688 4542155.000 -3650.000
21578856.172 4542155.000 -3656.513
21578575.281 4542454.609 -4100.000
21578127.813 4542734.285 -4100.000
21578860.313 4542155.000 -3674.670
21578860.563 4542230.867 -4100.000
21578860.813 4542311.135 -4550.000
21578901.953 4542155.000 -4000.000
21578914.750 4542155.000 -4100.000
21578951.555 4542155.000 -4387.607
21578956.531 4542155.000 -4550.000
21578991.555 4542155.000 -4868.702
21578861.063 4542391.402 -5000.000
21578085.359 4542876.223 -5000.000
21579029.922 4542155.000 -5000.000
21578045.250 4542894.176 -4960.196
21577984.531 4542926.098 -4897.496
21578046.969 4542842.520 -4550.000
21577950.922 4542935.293 -4867.156
21577795.250 4542948.797 -4550.000
21577624.391 4542946.836 -4100.000
21577897.281 4542949.965 -4818.743
21577732.688 4542977.926 -4678.949
21577524.406 4543018.188 -4550.000
21577442.828 4543027.168 -4432.769
21577576.578 4543012.441 -4625.000
21577315.906 4543045.738 -4295.538
21577147.469 4543069.023 -4100.000
21577156.031 4543069.133 -4122.685
21577046.781 4543067.738 -3833.550
21577115.125 4543031.578 -3650.000
21577021.297 4543063.352 -3772.690
21577453.531 4542944.879 -3650.000
21577282.672 4542942.922 -3200.000
21577456.078 4542811.473 -2975.000
21577240.719 4542903.766 -2975.000
21577198.781 4542864.613 -2750.000
21576975.031 4542920.547 -2750.000
21576012.938 4543107.930 -2975.000
21576449.250 4542968.090 -2525.000
21575999.219 4543207.773 -3650.000
21575487.156 4543093.945 -2750.000
21576080.656 4543219.695 -3829.276
21575859.344 4543243.453 -3767.883
21576255.516 4543198.898 -3878.565
21576626.641 4543142.043 -3891.164
21576823.875 4543111.824 -3897.859
21575746.281 4543250.965 -3738.299
21574284.547 4543345.656 -3200.000
21574364.813 4543361.164 -3369.729
21574955.781 4543093.945 -2525.000
21574027.250 4543272.938 -2750.000
21575179.516 4543010.039 -2300.000
21576667.391 4542898.172 -2300.000
21573769.953 4543200.219 -2300.000
21573568.766 4543253.371 -2525.000
21573976.906 4543133.098 -2000.000
21575034.094 4542990.461 -2000.000
21573795.125 4543169.457 -2000.000
21573730.797 4543144.285 -1700.000
21573479.094 4543144.289 -2300.000
21573495.875 4542853.426 -2000.000
21573392.391 4543060.387 -2525.000
21573327.375 4543225.883 -2750.000
21573434.344 4542931.734 -2300.000
21573358.828 4542900.969 -2525.000
21573458.094 4542503.947 -2300.000
21573513.688 4542532.586 -2000.000
21573376.641 4542580.129 -2525.000
21573414.438 4542345.250 -2525.000
21573295.188 4542656.313 -2750.000
21573305.688 4542976.484 -2750.000
21573132.281 4542808.676 -3200.000
21573251.500 4543266.680 -2975.000
21573381.328 4543370.031 -3134.113
21573280.016 4543311.715 -3132.635
21573419.969 4543386.598 -3136.862
21573602.516 4543306.523 -2750.000
21573457.063 4543398.867 -3140.901
21573499.172 4543397.688 -3151.295
21573696.453 4543392.160 -3200.000
21574083.125 4543370.832 -3299.502
21574261.344 4543364.199 -3344.130
21573204.078 4543036.895 -3220.451
21573165.172 4542897.387 -3261.335
21573137.391 4542858.133 -3268.820
21573126.469 4542842.699 -3271.763
21573131.984 4542710.162 -3320.738
21573132.000 4542709.957 -3320.816
21573213.156 4542305.971 -3200.000
21573179.250 4542377.195 -3367.868
21573264.734 4542251.598 -3060.738
21573288.766 4542226.264 -2995.850
21573303.969 4542210.230 -2954.788
21573324.516 4542174.979 -2906.454
21573336.141 4542155.000 -2879.061
21573362.078 4542155.000 -2794.735
21573370.766 4542186.553 -2750.000
21573379.766 4542155.000 -2750.000
21573397.688 4542155.000 -2704.609
21573468.656 4542155.000 -2525.000
21573533.344 4542155.000 -2361.267
21573557.547 4542155.000 -2300.000
21573591.500 4542155.000 -2140.229
21573603.500 4542217.482 -2000.000
21573632.359 4542155.000 -2000.000
21573659.531 4542155.000 -1906.745
21573569.281 4542561.223 -1700.000
21573729.203 4542155.000 -1700.000
21573783.656 4542155.000 -1548.278
21573788.844 4542155.000 -1533.849
21573680.453 4542618.498 -1100.000
21573618.922 4542696.807 -1400.000
21573847.656 4542155.000 -1275.846
[...]
POINT_DATA 378
COLOR_SCALARS GocadColor 4
0.486275 0.596078 0.827451 1
0.486275 0.596078 0.827451 1
0.486275 0.596078 0.827451 1
0.486275 0.596078 0.827451 1
0.486275 0.596078 0.827451 1
0.486275 0.596078 0.827451 1
0.486275 0.596078 0.827451 1
0.486275 0.596078 0.827451 1
0.486275 0.596078 0.827451 1
0.486275 0.596078 0.827451 1
0.486275 0.596078 0.827451 1
0.486275 0.596078 0.827451 1
0.486275 0.596078 0.827451 1
0.486275 0.596078 0.827451 1
0.486275 0.596078 0.827451 1
0.486275 0.596078 0.827451 1
0.486275 0.596078 0.827451 1
0.486275 0.596078 0.827451 1
0.486275 0.596078 0.827451 1
0.486275 0.596078 0.827451 1
0.486275 0.596078 0.827451 1
0.486275 0.596078 0.827451 1
0.486275 0.596078 0.827451 1
0.486275 0.596078 0.827451 1
0.486275 0.596078 0.827451 1
0.486275 0.596078 0.827451 1
0.486275 0.596078 0.827451 1
0.486275 0.596078 0.827451 1
0.486275 0.596078 0.827451 1
0.486275 0.596078 0.827451 1
0.486275 0.596078 0.827451 1
0.486275 0.596078 0.827451 1
0.486275 0.596078 0.827451 1
0.486275 0.596078 0.827451 1
0.486275 0.596078 0.827451 1
0.486275 0.596078 0.827451 1
0.486275 0.596078 0.827451 1
0.486275 0.596078 0.827451 1
0.486275 0.596078 0.827451 1
0.486275 0.596078 0.827451 1
0.486275 0.596078 0.827451 1
0.486275 0.596078 0.827451 1
0.486275 0.596078 0.827451 1
0.486275 0.596078 0.827451 1
0.486275 0.596078 0.827451 1
0.486275 0.596078 0.827451 1
0.486275 0.596078 0.827451 1
0.486275 0.596078 0.827451 1
0.486275 0.596078 0.827451 1
0.486275 0.596078 0.827451 1
0.486275 0.596078 0.827451 1
0.486275 0.596078 0.827451 1
0.486275 0.596078 0.827451 1
0.486275 0.596078 0.827451 1
0.486275 0.596078 0.827451 1
0.486275 0.596078 0.827451 1
0.486275 0.596078 0.827451 1
0.486275 0.596078 0.827451 1
0.486275 0.596078 0.827451 1
0.486275 0.596078 0.827451 1
0.486275 0.596078 0.827451 1
0.486275 0.596078 0.827451 1
0.486275 0.596078 0.827451 1
0.486275 0.596078 0.827451 1
0.486275 0.596078 0.827451 1
0.486275 0.596078 0.827451 1
0.486275 0.596078 0.827451 1
0.486275 0.596078 0.827451 1
0.486275 0.596078 0.827451 1
0.486275 0.596078 0.827451 1
0.486275 0.596078 0.827451 1
0.486275 0.596078 0.827451 1
0.486275 0.596078 0.827451 1
0.486275 0.596078 0.827451 1
0.486275 0.596078 0.827451 1
0.486275 0.596078 0.827451 1
0.486275 0.596078 0.827451 1
0.486275 0.596078 0.827451 1
0.486275 0.596078 0.827451 1
0.486275 0.596078 0.827451 1
0.486275 0.596078 0.827451 1
0.486275 0.596078 0.827451 1
0.486275 0.596078 0.827451 1
0.486275 0.596078 0.827451 1
0.486275 0.596078 0.827451 1
0.486275 0.596078 0.827451 1
0.486275 0.596078 0.827451 1
0.486275 0.596078 0.827451 1
0.486275 0.596078 0.827451 1
0.486275 0.596078 0.827451 1
0.486275 0.596078 0.827451 1
0.486275 0.596078 0.827451 1
0.486275 0.596078 0.827451 1
0.486275 0.596078 0.827451 1
0.486275 0.596078 0.827451 1
0.486275 0.596078 0.827451 1
0.486275 0.596078 0.827451 1
0.486275 0.596078 0.827451 1
0.486275 0.596078 0.827451 1
0.486275 0.596078 0.827451 1
0.486275 0.596078 0.827451 1
0.486275 0.596078 0.827451 1
0.486275 0.596078 0.827451 1
0.486275 0.596078 0.827451 1
0.486275 0.596078 0.827451 1
0.486275 0.596078 0.827451 1
0.486275 0.596078 0.827451 1
0.486275 0.596078 0.827451 1
0.486275 0.596078 0.827451 1
0.486275 0.596078 0.827451 1
0.486275 0.596078 0.827451 1
0.486275 0.596078 0.827451 1
0.486275 0.596078 0.827451 1
0.486275 0.596078 0.827451 1
0.486275 0.596078 0.827451 1
0.486275 0.596078 0.827451 1
0.486275 0.596078 0.827451 1
0.486275 0.596078 0.827451 1
0.486275 0.596078 0.827451 1
0.486275 0.596078 0.827451 1
0.486275 0.596078 0.827451 1
0.486275 0.596078 0.827451 1
0.486275 0.596078 0.827451 1
0.486275 0.596078 0.827451 1
0.486275 0.596078 0.827451 1
0.486275 0.596078 0.827451 1
0.486275 0.596078 0.827451 1
0.486275 0.596078 0.827451 1
0.486275 0.596078 0.827451 1
0.486275 0.596078 0.827451 1
0.486275 0.596078 0.827451 1
0.486275 0.596078 0.827451 1
0.486275 0.596078 0.827451 1
0.486275 0.596078 0.827451 1
0.486275 0.596078 0.827451 1
0.486275 0.596078 0.827451 1
0.486275 0.596078 0.827451 1
0.486275 0.596078 0.827451 1
0.486275 0.596078 0.827451 1
0.486275 0.596078 0.827451 1
0.486275 0.596078 0.827451 1
0.486275 0.596078 0.827451 1
0.486275 0.596078 0.827451 1
0.486275 0.596078 0.827451 1
0.486275 0.596078 0.827451 1
0.486275 0.596078 0.827451 1
0.486275 0.596078 0.827451 1
0.486275 0.596078 0.827451 1
0.486275 0.596078 0.827451 1
0.486275 0.596078 0.827451 1
0.486275 0.596078 0.827451 1
0.486275 0.596078 0.827451 1
0.486275 0.596078 0.827451 1
0.486275 0.596078 0.827451 1
0.486275 0.596078 0.827451 1
0.486275 0.596078 0.827451 1
0.486275 0.596078 0.827451 1
0.486275 0.596078 0.827451 1
0.486275 0.596078 0.827451 1
0.486275 0.596078 0.827451 1
0.486275 0.596078 0.827451 1
0.486275 0.596078 0.827451 1
0.486275 0.596078 0.827451 1
0.486275 0.596078 0.827451 1
0.486275 0.596078 0.827451 1
0.486275 0.596078 0.827451 1
0.486275 0.596078 0.827451 1
0.486275 0.596078 0.827451 1
0.486275 0.596078 0.827451 1
0.486275 0.596078 0.827451 1
0.486275 0.596078 0.827451 1
0.486275 0.596078 0.827451 1
0.486275 0.596078 0.827451 1
0.486275 0.596078 0.827451 1
0.486275 0.596078 0.827451 1
0.486275 0.596078 0.827451 1
0.486275 0.596078 0.827451 1
0.486275 0.596078 0.827451 1
0.486275 0.596078 0.827451 1
0.486275 0.596078 0.827451 1
0.486275 0.596078 0.827451 1
0.486275 0.596078 0.827451 1
0.486275 0.596078 0.827451 1
0.486275 0.596078 0.827451 1
0.486275 0.596078 0.827451 1
0.486275 0.596078 0.827451 1
0.486275 0.596078 0.827451 1
0.486275 0.596078 0.827451 1
0.486275 0.596078 0.827451 1
0.486275 0.596078 0.827451 1
0.486275 0.596078 0.827451 1
0.486275 0.596078 0.827451 1
0.486275 0.596078 0.827451 1
0.486275 0.596078 0.827451 1
0.486275 0.596078 0.827451 1
0.486275 0.596078 0.827451 1
0.486275 0.596078 0.827451 1
0.486275 0.596078 0.827451 1
0.486275 0.596078 0.827451 1
0.486275 0.596078 0.827451 1
0.486275 0.596078 0.827451 1
0.486275 0.596078 0.827451 1
0.486275 0.596078 0.827451 1
0.486275 0.596078 0.827451 1
0.486275 0.596078 0.827451 1
0.486275 0.596078 0.827451 1
0.486275 0.596078 0.827451 1
0.486275 0.596078 0.827451 1
0.486275 0.596078 0.827451 1
0.486275 0.596078 0.827451 1
0.486275 0.596078 0.827451 1
0.486275 0.596078 0.827451 1
0.486275 0.596078 0.827451 1
0.486275 0.596078 0.827451 1
0.486275 0.596078 0.827451 1
0.486275 0.596078 0.827451 1
0.486275 0.596078 0.827451 1
0.486275 0.596078 0.827451 1
0.486275 0.596078 0.827451 1
0.486275 0.596078 0.827451 1
0.486275 0.596078 0.827451 1
0.486275 0.596078 0.827451 1
0.486275 0.596078 0.827451 1
0.486275 0.596078 0.827451 1
0.486275 0.596078 0.827451 1
0.486275 0.596078 0.827451 1
0.486275 0.596078 0.827451 1
0.486275 0.596078 0.827451 1
0.486275 0.596078 0.827451 1
0.486275 0.596078 0.827451 1
0.486275 0.596078 0.827451 1
0.486275 0.596078 0.827451 1
0.486275 0.596078 0.827451 1
0.486275 0.596078 0.827451 1
0.486275 0.596078 0.827451 1
0.486275 0.596078 0.827451 1
0.486275 0.596078 0.827451 1
0.486275 0.596078 0.827451 1
0.486275 0.596078 0.827451 1
0.486275 0.596078 0.827451 1
0.486275 0.596078 0.827451 1
0.486275 0.596078 0.827451 1
0.486275 0.596078 0.827451 1
0.486275 0.596078 0.827451 1
0.486275 0.596078 0.827451 1
0.486275 0.596078 0.827451 1
0.486275 0.596078 0.827451 1
0.486275 0.596078 0.827451 1
0.486275 0.596078 0.827451 1
0.486275 0.596078 0.827451 1
0.486275 0.596078 0.827451 1
0.486275 0.596078 0.827451 1
0.486275 0.596078 0.827451 1
0.486275 0.596078 0.827451 1
0.486275 0.596078 0.827451 1
0.486275 0.596078 0.827451 1
0.486275 0.596078 0.827451 1
0.486275 0.596078 0.827451 1
0.486275 0.596078 0.827451 1
0.486275 0.596078 0.827451 1
0.486275 0.596078 0.827451 1
0.486275 0.596078 0.827451 1
0.486275 0.596078 0.827451 1
0.486275 0.596078 0.827451 1
0.486275 0.596078 0.827451 1
0.486275 0.596078 0.827451 1
0.486275 0.596078 0.827451 1
0.486275 0.596078 0.827451 1
0.486275 0.596078 0.827451 1
0.486275 0.596078 0.827451 1
0.486275 0.596078 0.827451 1
0.486275 0.596078 0.827451 1
0.486275 0.596078 0.827451 1
0.486275 0.596078 0.827451 1
0.486275 0.596078 0.827451 1
0.486275 0.596078 0.827451 1
0.486275 0.596078 0.827451 1
0.486275 0.596078 0.827451 1
0.486275 0.596078 0.827451 1
0.486275 0.596078 0.827451 1
0.486275 0.596078 0.827451 1
0.486275 0.596078 0.827451 1
0.486275 0.596078 0.827451 1
0.486275 0.596078 0.827451 1
0.486275 0.596078 0.827451 1
0.486275 0.596078 0.827451 1
0.486275 0.596078 0.827451 1
0.486275 0.596078 0.827451 1
0.486275 0.596078 0.827451 1
0.486275 0.596078 0.827451 1
0.486275 0.596078 0.827451 1
0.486275 0.596078 0.827451 1
0.486275 0.596078 0.827451 1
0.486275 0.596078 0.827451 1
0.486275 0.596078 0.827451 1
0.486275 0.596078 0.827451 1
0.486275 0.596078 0.827451 1
0.486275 0.596078 0.827451 1
0.486275 0.596078 0.827451 1
0.486275 0.596078 0.827451 1
0.486275 0.596078 0.827451 1
0.486275 0.596078 0.827451 1
0.486275 0.596078 0.827451 1
0.486275 0.596078 0.827451 1
0.486275 0.596078 0.827451 1
0.486275 0.596078 0.827451 1
0.486275 0.596078 0.827451 1
0.486275 0.596078 0.827451 1
0.486275 0.596078 0.827451 1
0.486275 0.596078 0.827451 1
0.486275 0.596078 0.827451 1
0.486275 0.596078 0.827451 1
0.486275 0.596078 0.827451 1
0.486275 0.596078 0.827451 1
0.486275 0.596078 0.827451 1
0.486275 0.596078 0.827451 1
0.486275 0.596078 0.827451 1
0.486275 0.596078 0.827451 1
0.486275 0.596078 0.827451 1
0.486275 0.596078 0.827451 1
0.486275 0.596078 0.827451 1
0.486275 0.596078 0.827451 1
0.486275 0.596078 0.827451 1
0.486275 0.596078 0.827451 1
0.486275 0.596078 0.827451 1
0.486275 0.596078 0.827451 1
0.486275 0.596078 0.827451 1
0.486275 0.596078 0.827451 1
0.486275 0.596078 0.827451 1
0.486275 0.596078 0.827451 1
0.486275 0.596078 0.827451 1
0.486275 0.596078 0.827451 1
0.486275 0.596078 0.827451 1
0.486275 0.596078 0.827451 1
0.486275 0.596078 0.827451 1
0.486275 0.596078 0.827451 1
0.486275 0.596078 0.827451 1
0.486275 0.596078 0.827451 1
0.486275 0.596078 0.827451 1
0.486275 0.596078 0.827451 1
0.486275 0.596078 0.827451 1
0.486275 0.596078 0.827451 1
0.486275 0.596078 0.827451 1
0.486275 0.596078 0.827451 1
0.486275 0.596078 0.827451 1
0.486275 0.596078 0.827451 1
0.486275 0.596078 0.827451 1
0.486275 0.596078 0.827451 1
0.486275 0.596078 0.827451 1
0.486275 0.596078 0.827451 1
0.486275 0.596078 0.827451 1
0.486275 0.596078 0.827451 1
0.486275 0.596078 0.827451 1
0.486275 0.596078 0.827451 1
0.486275 0.596078 0.827451 1
0.486275 0.596078 0.827451 1
0.486275 0.596078 0.827451 1
0.486275 0.596078 0.827451 1
0.486275 0.596078 0.827451 1
0.486275 0.596078 0.827451 1
0.486275 0.596078 0.827451 1
0.486275 0.596078 0.827451 1
0.486275 0.596078 0.827451 1
0.486275 0.596078 0.827451 1
0.486275 0.596078 0.827451 1
0.486275 0.596078 0.827451 1
0.486275 0.596078 0.827451 1
0.486275 0.596078 0.827451 1
0.486275 0.596078 0.827451 1
0.486275 0.596078 0.827451 1
0.486275 0.596078 0.827451 1
0.486275 0.596078 0.827451 1
0.486275 0.596078 0.827451 1
0.486275 0.596078 0.827451 1
0.486275 0.596078 0.827451 1
0.486275 0.596078 0.827451 1
0.486275 0.596078 0.827451 1
0.486275 0.596078 0.827451 1

