# vtk DataFile Version 3.0
Gocad TSurf to VTK
ASCII
DATASET POLYDATA
POINTS 788 float
21618426.984 4543078.441 184.889
21618472.242 4543018.461 413.185
21618405.031 4543056.488 184.889
21618370.078 4543066.770 182.935
21618381.719 4543138.418 -43.407
21618518.844 4543004.750 417.155
21618461.938 4543068.156 187.866
21618405.023 4543131.563 -41.423
21618522.313 4543068.156 187.866
21618525.773 4543131.563 -41.423
21618565.453 4542991.039 421.125
21618557.266 4543057.875 190.844
21618549.078 4543124.707 -39.437
21618612.055 4542977.328 425.095
21618592.219 4543047.590 193.821
21618572.375 4543117.852 -37.453
21618658.664 4542963.617 429.065
21618627.172 4543037.309 196.799
21618595.688 4543110.996 -35.467
21618705.266 4542949.914 433.035
21618662.125 4543027.031 199.776
21618618.984 4543104.145 -33.483
21618751.867 4542936.203 437.005
21618697.078 4543016.746 202.753
21618642.281 4543097.289 -31.498
21618798.477 4542922.492 440.975
21618732.031 4543006.465 205.731
21618665.594 4543090.434 -29.513
21618766.984 4542996.180 208.708
21618688.891 4543083.578 -27.528
21618845.078 4542908.781 444.944
21618906.945 4542952.273 208.708
21618968.813 4542995.762 -27.528
21618891.680 4542895.070 448.914
21618941.891 4542941.988 211.686
21618938.289 4542881.367 452.884
21618976.852 4542931.711 214.663
21618992.109 4542988.906 -25.543
21618984.891 4542867.656 456.854
21619011.805 4542921.430 217.641
21619038.719 4542975.199 -21.573
21619031.500 4542853.945 460.824
21619046.758 4542911.145 220.618
21619062.016 4542968.344 -19.588
21619078.102 4542840.234 464.794
21619081.711 4542900.863 223.596
21619085.320 4542961.488 -17.603
21619124.703 4542826.523 464.621
21619116.664 4542890.578 223.466
21619108.625 4542954.633 -17.689
21619171.313 4542812.813 462.212
21619151.617 4542880.297 221.659
21619131.922 4542947.777 -18.894
21619217.914 4542799.109 459.804
21619186.570 4542870.016 219.853
21619155.227 4542940.926 -20.098
21619264.516 4542785.398 457.396
21619221.523 4542859.734 218.047
21619178.531 4542934.070 -21.302
21619311.125 4542771.688 454.987
21619256.477 4542849.453 216.240
21619201.828 4542927.215 -22.507
21619357.727 4542757.979 452.579
21619291.430 4542839.168 214.434
21619225.133 4542920.359 -23.711
21619404.336 4542744.270 450.170
21619326.391 4542828.887 212.627
21619248.438 4542913.508 -24.915
21619458.109 4542784.980 212.627
21619511.891 4542825.688 -24.915
21619450.938 4542730.561 447.762
21619493.063 4542774.699 210.821
21619497.539 4542716.852 445.353
21619528.016 4542764.416 209.015
21619535.188 4542818.836 -26.119
21619544.148 4542703.141 442.944
21619562.969 4542754.133 207.208
21619558.484 4542811.980 -27.323
21619590.750 4542689.432 440.536
21619597.922 4542743.852 205.402
21619581.797 4542805.125 -28.528
21619625.367 4542705.430 205.402
21619659.984 4542721.430 -29.732
21619630.852 4542661.523 205.402
21619600.664 4542645.057 205.402
21619610.578 4542600.682 -29.732
21619568.609 4542640.234 206.615
21619589.211 4542597.467 -28.924
21619548.008 4542683.002 442.153
21619494.516 4542621.023 206.615
21619462.453 4542616.203 207.827
21619441.016 4542559.047 -28.924
21619505.258 4542676.572 443.770
21619430.391 4542611.379 209.040
21619419.641 4542555.832 -28.115
21619462.516 4542670.143 445.386
21619398.336 4542606.559 210.252
21619398.273 4542552.617 -27.307
21619419.773 4542663.715 447.003
21619366.281 4542601.736 211.465
21619376.906 4542549.402 -26.499
21619377.031 4542657.285 448.620
21619334.219 4542596.914 212.677
21619355.531 4542546.188 -25.690
21619334.281 4542650.855 450.236
21619302.164 4542592.092 213.890
21619312.781 4542539.758 -24.073
21619291.539 4542644.426 451.853
21619270.227 4542578.590 214.827
21619291.500 4542530.758 -23.449
21619248.961 4542626.424 453.102
21619215.344 4542551.148 214.827
21619183.406 4542537.646 215.763
21619181.727 4542475.871 -23.449
21619206.383 4542608.422 454.351
21619151.477 4542524.145 216.700
21619160.438 4542466.871 -22.824
21619163.805 4542590.418 455.600
21619119.547 4542510.643 217.636
21619139.148 4542457.869 -22.200
21619121.234 4542572.416 456.849
21619087.617 4542497.141 218.573
21619117.859 4542448.867 -21.576
21619078.656 4542554.414 458.098
21619055.680 4542483.637 219.510
21619096.578 4542439.867 -20.951
21619036.078 4542536.410 459.346
21619023.750 4542470.137 220.447
21619054.000 4542421.863 -19.702
21618993.500 4542518.408 460.595
21618990.813 4542439.949 220.447
21618958.883 4542426.447 220.154
21618988.133 4542361.490 -19.702
21618950.922 4542500.406 460.206
21618926.953 4542412.945 217.813
21618966.844 4542352.488 -19.897
21618908.344 4542482.404 457.084
21618895.023 4542399.445 215.472
21618945.555 4542343.488 -21.458
21618865.773 4542464.402 453.963
21618863.086 4542385.941 214.355
21618924.266 4542334.488 -23.018
21618823.195 4542446.398 452.473
21618831.156 4542372.441 215.027
21618881.688 4542316.484 -23.316
21618780.617 4542428.396 453.369
21618808.063 4542351.828 216.236
21618866.297 4542302.742 -22.509
21618749.828 4542400.914 454.981
21618788.852 4542318.896 216.236
21618765.766 4542298.283 217.314
21618827.875 4542236.879 -22.509
21618719.047 4542373.430 456.419
21618742.680 4542277.672 215.309
21618812.484 4542223.137 -21.791
21618688.266 4542345.947 453.745
21618719.586 4542257.061 213.303
21618797.094 4542209.396 -23.128
21618657.477 4542318.465 451.071
21618698.477 4542228.404 210.752
21618781.703 4542195.656 -24.464
21618629.328 4542280.258 447.669
21618677.375 4542199.750 208.200
21618767.625 4542176.551 -26.166
21618601.188 4542242.051 444.266
21618656.258 4542171.094 205.648
21618722.641 4542155.000 34.926
21618573.039 4542203.844 440.864
21618644.406 4542155.000 204.215
21618677.719 4542155.000 132.113
21618622.453 4542155.000 251.733
21618586.281 4542155.000 329.998
21618544.898 4542165.637 437.462
21618559.086 4542155.000 388.863
21618537.063 4542155.000 436.515
21618697.156 4542155.000 90.060
21618751.750 4542155.000 -28.085
21618753.555 4542157.449 -27.867
21618756.820 4542155.000 -39.057
21618757.969 4542155.000 -41.534
21618759.781 4542155.000 -45.457
21618796.367 4542155.000 -124.634
21618806.438 4542155.000 -146.433
21618822.828 4542155.000 -181.887
21618833.742 4542155.000 -201.223
21618840.445 4542155.000 -213.095
21618852.117 4542155.000 -233.760
21618854.844 4542155.000 -238.597
21618866.789 4542155.000 -260.775
21618866.836 4542155.000 -260.857
21618924.531 4542253.658 -261.255
21618866.977 4542155.000 -261.255
21618867.219 4542155.000 -261.911
21618982.766 4542204.572 -500.000
21618932.227 4542260.527 -261.658
21618953.844 4542155.000 -500.000
21618961.695 4542155.000 -534.186
21619008.188 4542155.000 -736.606
21619068.672 4542155.000 -1000.000
21619102.172 4542182.898 -1075.000
21619114.492 4542325.320 -500.000
21619085.898 4542155.000 -1075.000
21619127.984 4542155.000 -1258.251
21619217.945 4542155.000 -1650.000
21619221.578 4542161.223 -1650.000
21619200.969 4542273.459 -1075.000
21619233.000 4542155.000 -1715.525
21619255.859 4542155.000 -1815.070
21619287.445 4542221.598 -1650.000
21619330.906 4542155.000 -2116.707
21619357.852 4542155.000 -2225.000
21619373.922 4542169.734 -2225.000
21619397.219 4542276.482 -1650.000
21619398.492 4542155.000 -2388.364
21619428.805 4542197.178 -2225.000
21619445.609 4542155.000 -2530.810
21619516.922 4542227.371 -2580.055
21619479.555 4542179.559 -2603.395
21619546.867 4542265.688 -2561.352
21619512.141 4542293.330 -2225.000
21619577.648 4542273.775 -2560.357
21619586.234 4542312.539 -2225.000
21619600.961 4542379.004 -1650.000
21619680.523 4542310.904 -2551.150
21619823.406 4542395.871 -2225.000
21619759.078 4542434.559 -1650.000
21619858.117 4542374.998 -2535.257
21619871.844 4542382.859 -2532.335
21619853.594 4542412.338 -2225.000
21619819.453 4542467.490 -1650.000
21619953.500 4542482.564 -2484.115
21620007.438 4542585.412 -2225.000
21619922.016 4542582.873 -1650.000
21620038.477 4542586.334 -2433.931
21620032.680 4542613.229 -2417.566
21620001.953 4542629.320 -2225.000
21620032.172 4542615.570 -2416.117
21620032.555 4542683.535 -2375.968
21620033.320 4542817.781 -2296.665
21620021.188 4542815.215 -2225.000
21619911.039 4542670.689 -1650.000
21620029.211 4542827.461 -2290.423
21619986.203 4542928.918 -2225.000
21619889.672 4542905.730 -1650.000
21619923.859 4542794.621 -1650.000
21619965.516 4542977.711 -2193.537
21619937.516 4543009.574 -2171.166
21619931.477 4543016.453 -2166.338
21619834.781 4542982.570 -1650.000
21619809.438 4542829.578 -1075.000
21619824.203 4543063.504 -2125.000
21619691.484 4543115.871 -2037.142
21619621.609 4543143.441 -1990.885
21619621.109 4543089.406 -1650.000
21619727.109 4542944.840 -1075.000
21619551.602 4543161.129 -1955.367
21619411.703 4543196.480 -1884.389
21619357.664 4543177.223 -1650.000
21619620.273 4542998.258 -1075.000
21619259.406 4543232.938 -1809.323
21619059.328 4543280.840 -1710.702
21619032.883 4543279.785 -1650.000
21619225.102 4543129.980 -1075.000
21619030.086 4543289.020 -1703.889
21619017.813 4543292.430 -1701.046
21618797.359 4543353.676 -1650.000
21619062.711 4543181.262 -1075.000
21618757.891 4543364.641 -1640.860
21618750.906 4543366.578 -1639.243
21618642.836 4543312.988 -1075.000
21619092.539 4543082.742 -500.000
21618471.430 4543385.156 -1621.140
21618464.172 4543385.637 -1620.670
21618497.539 4543323.672 -1075.000
21618532.703 4543258.375 -500.000
21618454.906 4543385.625 -1620.565
21618316.414 4543323.672 -1075.000
21618291.203 4543258.375 -500.000
21618340.281 4543385.480 -1619.268
21618225.266 4543370.191 -1629.913
21618256.586 4543315.125 -1075.000
21618223.164 4543369.910 -1630.108
21618194.344 4543344.254 -1650.000
21618178.063 4543327.969 -1650.000
21618190.727 4543249.266 -1075.000
21618177.813 4543329.531 -1661.413
21618045.578 4543238.227 -1650.000
21618124.484 4543204.395 -1075.000
21618059.453 4543257.738 -1716.604
21618034.867 4543242.820 -1728.073
21617933.086 4543196.434 -1763.421
21617924.828 4543177.852 -1650.000
21617943.359 4543113.832 -1075.000
21617921.039 4543190.945 -1767.603
[...]
POINT_DATA 788
COLOR_SCALARS GocadColor 4
0.741176 0.321569 0.741176 1
0.741176 0.321569 0.741176 1
0.741176 0.321569 0.741176 1
0.741176 0.321569 0.741176 1
0.741176 0.321569 0.741176 1
0.741176 0.321569 0.741176 1
0.741176 0.321569 0.741176 1
0.741176 0.321569 0.741176 1
0.741176 0.321569 0.741176 1
0.741176 0.321569 0.741176 1
0.741176 0.321569 0.741176 1
0.741176 0.321569 0.741176 1
0.741176 0.321569 0.741176 1
0.741176 0.321569 0.741176 1
0.741176 0.321569 0.741176 1
0.741176 0.321569 0.741176 1
0.741176 0.321569 0.741176 1
0.741176 0.321569 0.741176 1
0.741176 0.321569 0.741176 1
0.741176 0.321569 0.741176 1
0.741176 0.321569 0.741176 1
0.741176 0.321569 0.741176 1
0.741176 0.321569 0.741176 1
0.741176 0.321569 0.741176 1
0.741176 0.321569 0.741176 1
0.741176 0.321569 0.741176 1
0.741176 0.321569 0.741176 1
0.741176 0.321569 0.741176 1
0.741176 0.321569 0.741176 1
0.741176 0.321569 0.741176 1
0.741176 0.321569 0.741176 1
0.741176 0.321569 0.741176 1
0.741176 0.321569 0.741176 1
0.741176 0.321569 0.741176 1
0.741176 0.321569 0.741176 1
0.741176 0.321569 0.741176 1
0.741176 0.321569 0.741176 1
0.741176 0.321569 0.741176 1
0.741176 0.321569 0.741176 1
0.741176 0.321569 0.741176 1
0.741176 0.321569 0.741176 1
0.741176 0.321569 0.741176 1
0.741176 0.321569 0.741176 1
0.741176 0.321569 0.741176 1
0.741176 0.321569 0.741176 1
0.741176 0.321569 0.741176 1
0.741176 0.321569 0.741176 1
0.741176 0.321569 0.741176 1
0.741176 0.321569 0.741176 1
0.741176 0.321569 0.741176 1
0.741176 0.321569 0.741176 1
0.741176 0.321569 0.741176 1
0.741176 0.321569 0.741176 1
0.741176 0.321569 0.741176 1
0.741176 0.321569 0.741176 1
0.741176 0.321569 0.741176 1
0.741176 0.321569 0.741176 1
0.741176 0.321569 0.741176 1
0.741176 0.321569 0.741176 1
0.741176 0.321569 0.741176 1
0.741176 0.321569 0.741176 1
0.741176 0.321569 0.741176 1
0.741176 0.321569 0.741176 1
0.741176 0.321569 0.741176 1
0.741176 0.321569 0.741176 1
0.741176 0.321569 0.741176 1
0.741176 0.321569 0.741176 1
0.741176 0.321569 0.741176 1
0.741176 0.321569 0.741176 1
0.741176 0.321569 0.741176 1
0.741176 0.321569 0.741176 1
0.741176 0.321569 0.741176 1
0.741176 0.321569 0.741176 1
0.741176 0.321569 0.741176 1
0.741176 0.321569 0.741176 1
0.741176 0.321569 0.741176 1
0.741176 0.321569 0.741176 1
0.741176 0.321569 0.741176 1
0.741176 0.321569 0.741176 1
0.741176 0.321569 0.741176 1
0.741176 0.321569 0.741176 1
0.741176 0.321569 0.741176 1
0.741176 0.321569 0.741176 1
0.741176 0.321569 0.741176 1
0.741176 0.321569 0.741176 1
0.741176 0.321569 0.741176 1
0.741176 0.321569 0.741176 1
0.741176 0.321569 0.741176 1
0.741176 0.321569 0.741176 1
0.741176 0.321569 0.741176 1
0.741176 0.321569 0.741176 1
0.741176 0.321569 0.741176 1
0.741176 0.321569 0.741176 1
0.741176 0.321569 0.741176 1
0.741176 0.321569 0.741176 1
0.741176 0.321569 0.741176 1
0.741176 0.321569 0.741176 1
0.741176 0.321569 0.741176 1
0.741176 0.321569 0.741176 1
0.741176 0.321569 0.741176 1
0.741176 0.321569 0.741176 1
0.741176 0.321569 0.741176 1
0.741176 0.321569 0.741176 1
0.741176 0.321569 0.741176 1
0.741176 0.321569 0.741176 1
0.741176 0.321569 0.741176 1
0.741176 0.321569 0.741176 1
0.741176 0.321569 0.741176 1
0.741176 0.321569 0.741176 1
0.741176 0.321569 0.741176 1
0.741176 0.321569 0.741176 1
0.741176 0.321569 0.741176 1
0.741176 0.321569 0.741176 1
0.741176 0.321569 0.741176 1
0.741176 0.321569 0.741176 1
0.741176 0.321569 0.741176 1
0.741176 0.321569 0.741176 1
0.741176 0.321569 0.741176 1
0.741176 0.321569 0.741176 1
0.741176 0.321569 0.741176 1
0.741176 0.321569 0.741176 1
0.741176 0.321569 0.741176 1
0.741176 0.321569 0.741176 1
0.741176 0.321569 0.741176 1
0.741176 0.321569 0.741176 1
0.741176 0.321569 0.741176 1
0.741176 0.321569 0.741176 1
0.741176 0.321569 0.741176 1
0.741176 0.321569 0.741176 1
0.741176 0.321569 0.741176 1
0.741176 0.321569 0.741176 1
0.741176 0.321569 0.741176 1
0.741176 0.321569 0.741176 1
0.741176 0.321569 0.741176 1
0.741176 0.321569 0.741176 1
0.741176 0.321569 0.741176 1
0.741176 0.321569 0.741176 1
0.741176 0.321569 0.741176 1
0.741176 0.321569 0.741176 1
0.741176 0.321569 0.741176 1
0.741176 0.321569 0.741176 1
0.741176 0.321569 0.741176 1
0.741176 0.321569 0.741176 1
0.741176 0.321569 0.741176 1
0.741176 0.321569 0.741176 1
0.741176 0.321569 0.741176 1
0.741176 0.321569 0.741176 1
0.741176 0.321569 0.741176 1
0.741176 0.321569 0.741176 1
0.741176 0.321569 0.741176 1
0.741176 0.321569 0.741176 1
0.741176 0.321569 0.741176 1
0.741176 0.321569 0.741176 1
0.741176 0.321569 0.741176 1
0.741176 0.321569 0.741176 1
0.741176 0.321569 0.741176 1
0.741176 0.321569 0.741176 1
0.741176 0.321569 0.741176 1
0.741176 0.321569 0.741176 1
0.741176 0.321569 0.741176 1
0.741176 0.321569 0.741176 1
0.741176 0.321569 0.741176 1
0.741176 0.321569 0.741176 1
0.741176 0.321569 0.741176 1
0.741176 0.321569 0.741176 1
0.741176 0.321569 0.741176 1
0.741176 0.321569 0.741176 1
0.741176 0.321569 0.741176 1
0.741176 0.321569 0.741176 1
0.741176 0.321569 0.741176 1
0.741176 0.321569 0.741176 1
0.741176 0.321569 0.741176 1
0.741176 0.321569 0.741176 1
0.741176 0.321569 0.741176 1
0.741176 0.321569 0.741176 1
0.741176 0.321569 0.741176 1
0.741176 0.321569 0.741176 1
0.741176 0.321569 0.741176 1
0.741176 0.321569 0.741176 1
0.741176 0.321569 0.741176 1
0.741176 0.321569 0.741176 1
0.741176 0.321569 0.741176 1
0.741176 0.321569 0.741176 1
0.741176 0.321569 0.741176 1
0.741176 0.321569 0.741176 1
0.741176 0.321569 0.741176 1
0.741176 0.321569 0.741176 1
0.741176 0.321569 0.741176 1
0.741176 0.321569 0.741176 1
0.741176 0.321569 0.741176 1
0.741176 0.321569 0.741176 1
0.741176 0.321569 0.741176 1
0.741176 0.321569 0.741176 1
0.741176 0.321569 0.741176 1
0.741176 0.321569 0.741176 1
0.741176 0.321569 0.741176 1
0.741176 0.321569 0.741176 1
0.741176 0.321569 0.741176 1
0.741176 0.321569 0.741176 1
0.741176 0.321569 0.741176 1
0.741176 0.321569 0.741176 1
0.741176 0.321569 0.741176 1
0.741176 0.321569 0.741176 1
0.741176 0.321569 0.741176 1
0.741176 0.321569 0.741176 1
0.741176 0.321569 0.741176 1
0.741176 0.321569 0.741176 1
0.741176 0.321569 0.741176 1
0.741176 0.321569 0.741176 1
0.741176 0.321569 0.741176 1
0.741176 0.321569 0.741176 1
0.741176 0.321569 0.741176 1
0.741176 0.321569 0.741176 1
0.741176 0.321569 0.741176 1
0.741176 0.321569 0.741176 1
0.741176 0.321569 0.741176 1
0.741176 0.321569 0.741176 1
0.741176 0.321569 0.741176 1
0.741176 0.321569 0.741176 1
0.741176 0.321569 0.741176 1
0.741176 0.321569 0.741176 1
0.741176 0.321569 0.741176 1
0.741176 0.321569 0.741176 1
0.741176 0.321569 0.741176 1
0.741176 0.321569 0.741176 1
0.741176 0.321569 0.741176 1
0.741176 0.321569 0.741176 1
0.741176 0.321569 0.741176 1
0.741176 0.321569 0.741176 1
0.741176 0.321569 0.741176 1
0.741176 0.321569 0.741176 1
0.741176 0.321569 0.741176 1
0.741176 0.321569 0.741176 1
0.741176 0.321569 0.741176 1
0.741176 0.321569 0.741176 1
0.741176 0.321569 0.741176 1
0.741176 0.321569 0.741176 1
0.741176 0.321569 0.741176 1
0.741176 0.321569 0.741176 1
0.741176 0.321569 0.741176 1
0.741176 0.321569 0.741176 1
0.741176 0.321569 0.741176 1
0.741176 0.321569 0.741176 1
0.741176 0.321569 0.741176 1
0.741176 0.321569 0.741176 1
0.741176 0.321569 0.741176 1
0.741176 0.321569 0.741176 1
0.741176 0.321569 0.741176 1
0.741176 0.321569 0.741176 1
0.741176 0.321569 0.741176 1
0.741176 0.321569 0.741176 1
0.741176 0.321569 0.741176 1
0.741176 0.321569 0.741176 1
0.741176 0.321569 0.741176 1
0.741176 0.321569 0.741176 1
0.741176 0.321569 0.741176 1
0.741176 0.321569 0.741176 1
0.741176 0.321569 0.741176 1
0.741176 0.321569 0.741176 1
0.741176 0.321569 0.741176 1
0.741176 0.321569 0.741176 1
0.741176 0.321569 0.741176 1
0.741176 0.321569 0.741176 1
0.741176 0.321569 0.741176 1
0.741176 0.321569 0.741176 1
0.741176 0.321569 0.741176 1
0.741176 0.321569 0.741176 1
0.741176 0.321569 0.741176 1
0.741176 0.321569 0.741176 1
0.741176 0.321569 0.741176 1
0.741176 0.321569 0.741176 1
0.741176 0.321569 0.741176 1
0.741176 0.321569 0.741176 1
0.741176 0.321569 0.741176 1
0.741176 0.321569 0.741176 1
0.741176 0.321569 0.741176 1
0.741176 0.321569 0.741176 1
0.741176 0.321569 0.741176 1
0.741176 0.321569 0.741176 1
0.741176 0.321569 0.741176 1
0.741176 0.321569 0.741176 1
0.741176 0.321569 0.741176 1
0.741176 0.321569 0.741176 1
0.741176 0.321569 0.741176 1
0.741176 0.321569 0.741176 1
0.741176 0.321569 0.741176 1
0.741176 0.321569 0.741176 1
0.741176 0.321569 0.741176 1
0.741176 0.321569 0.741176 1
0.741176 0.321569 0.741176 1
0.741176 0.321569 0.741176 1
0.741176 0.321569 0.741176 1
0.741176 0.321569 0.741176 1
0.741176 0.321569 0.741176 1
0.741176 0.321569 0.741176 1
0.741176 0.321569 0.741176 1
0.741176 0.321569 0.741176 1
0.741176 0.321569 0.741176 1
0.741176 0.321569 0.741176 1
0.741176 0.321569 0.741176 1
0.741176 0.321569 0.741176 1
0.741176 0.321569 0.741176 1
0.741176 0.321569 0.741176 1
0.741176 0.321569 0.741176 1
0.741176 0.321569 0.741176 1
0.741176 0.321569 0.741176 1
0.741176 0.321569 0.741176 1
0.741176 0.321569 0.741176 1
0.741176 0.321569 0.741176 1
0.741176 0.321569 0.741176 1
0.741176 0.321569 0.741176 1
0.741176 0.321569 0.741176 1
0.741176 0.321569 0.741176 1
0.741176 0.321569 0.741176 1
0.741176 0.321569 0.741176 1
0.741176 0.321569 0.741176 1
0.741176 0.321569 0.741176 1
0.741176 0.321569 0.741176 1
0.741176 0.321569 0.741176 1
0.741176 0.321569 0.741176 1
0.741176 0.321569 0.741176 1
0.741176 0.321569 0.741176 1
0.741176 0.321569 0.741176 1
0.741176 0.321569 0.741176 1
0.741176 0.321569 0.741176 1
0.741176 0.321569 0.741176 1
0.741176 0.321569 0.741176 1
0.741176 0.321569 0.741176 1
0.741176 0.321569 0.741176 1
0.741176 0.321569 0.741176 1
0.741176 0.321569 0.741176 1
0.741176 0.321569 0.741176 1
0.741176 0.321569 0.741176 1
0.741176 0.321569 0.741176 1
0.741176 0.321569 0.741176 1
0.741176 0.321569 0.741176 1
0.741176 0.321569 0.741176 1
0.741176 0.321569 0.741176 1
0.741176 0.321569 0.741176 1
0.741176 0.321569 0.741176 1
0.741176 0.321569 0.741176 1
0.741176 0.321569 0.741176 1
0.741176 0.321569 0.741176 1
0.741176 0.321569 0.741176 1
0.741176 0.321569 0.741176 1
0.741176 0.321569 0.741176 1
0.741176 0.321569 0.741176 1
0.741176 0.321569 0.741176 1
0.741176 0.321569 0.741176 1
0.741176 0.321569 0.741176 1
0.741176 0.321569 0.741176 1
0.741176 0.321569 0.741176 1
0.741176 0.321569 0.741176 1
0.741176 0.321569 0.741176 1
0.741176 0.321569 0.741176 1
0.741176 0.321569 0.741176 1
0.741176 0.321569 0.741176 1
0.741176 0.321569 0.741176 1
0.741176 0.321569 0.741176 1
0.741176 0.321569 0.741176 1
0.741176 0.321569 0.741176 1
0.741176 0.321569 0.741176 1
0.741176 0.321569 0.741176 1
0.741176 0.321569 0.741176 1
0.741176 0.321569 0.741176 1
0.741176 0.321569 0.741176 1
0.741176 0.321569 0.741176 1
0.741176 0.321569 0.741176 1
0.741176 0.321569 0.741176 1
0.741176 0.321569 0.741176 1
0.741176 0.321569 0.741176 1
0.741176 0.321569 0.741176 1
0.741176 0.321569 0.741176 1
0.741176 0.321569 0.741176 1
0.741176 0.321569 0.741176 1
0.741176 0.321569 0.741176 1
0.741176 0.321569 0.741176 1
0.741176 0.321569 0.741176 1
0.741176 0.321569 0.741176 1
0.741176 0.321569 0.741176 1
0.741176 0.321569 0.741176 1
0.741176 0.321569 0.741176 1
0.741176 0.321569 0.741176 1
0.741176 0.321569 0.741176 1
0.741176 0.321569 0.741176 1
0.741176 0.321569 0.741176 1
0.741176 0.321569 0.741176 1
0.741176 0.321569 0.741176 1
0.741176 0.321569 0.741176 1
0.741176 0.321569 0.741176 1
0.741176 0.321569 0.741176 1
0.741176 0.321569 0.741176 1
0.741176 0.321569 0.741176 1
0.741176 0.321569 0.741176 1
0.741176 0.321569 0.741176 1
0.741176 0.321569 0.741176 1
0.741176 0.321569 0.741176 1
0.741176 0.321569 0.741176 1
0.741176 0.321569 0.741176 1
0.741176 0.321569 0.741176 1
0.741176 0.321569 0.741176 1
0.741176 0.321569 0.741176 1
0.741176 0.321569 0.741176 1
0.741176 0.321569 0.741176 1
0.741176 0.321569 0.741176 1
0.741176 0.321569 0.741176 1
0.741176 0.321569 0.741176 1
0.741176 0.321569 0.741176 1
0.741176 0.321569 0.741176 1
0.741176 0.321569 0.741176 1
0.741176 0.321569 0.741176 1
0.741176 0.321569 0.741176 1
0.741176 0.321569 0.741176 1
0.741176 0.321569 0.741176 1
0.741176 0.321569 0.741176 1
0.741176 0.321569 0.741176 1
0.741176 0.321569 0.741176 1
0.741176 0.321569 0.741176 1
0.741176 0.321569 0.741176 1
0.741176 0.321569 0.741176 1
0.741176 0.321569 0.741176 1
0.741176 0.321569 0.741176 1
0.741176 0.321569 0.741176 1
0.741176 0.321569 0.741176 1
0.741176 0.321569 0.741176 1
0.741176 0.321569 0.741176 1
0.741176 0.321569 0.741176 1
0.741176 0.321569 0.741176 1
0.741176 0.321569 0.741176 1
0.741176 0.321569 0.741176 1
0.741176 0.321569 0.741176 1
0.741176 0.321569 0.741176 1
0.741176 0.321569 0.741176 1
0.741176 0.321569 0.741176 1
0.741176 0.321569 0.741176 1
0.741176 0.321569 0.741176 1
0.741176 0.321569 0.741176 1
0.741176 0.321569 0.741176 1
0.741176 0.321569 0.741176 1
0.741176 0.321569 0.741176 1
0.741176 0.321569 0.741176 1
0.741176 0.321569 0.741176 1
0.741176 0.321569 0.741176 1
0.741176 0.321569 0.741176 1
0.741176 0.321569 0.741176 1
0.741176 0.321569 0.741176 1
0.741176 0.321569 0.741176 1
0.741176 0.321569 0.741176 1
0.741176 0.321569 0.741176 1
0.741176 0.321569 0.741176 1
0.741176 0.321569 0.741176 1
0.741176 0.321569 0.741176 1
0.741176 0.321569 0.741176 1
0.741176 0.321569 0.741176 1
0.741176 0.321569 0.741176 1
0.741176 0.321569 0.741176 1
0.741176 0.321569 0.741176 1
0.741176 0.321569 0.741176 1
0.741176 0.321569 0.741176 1
0.741176 0.321569 0.741176 1
0.741176 0.321569 0.741176 1
0.741176 0.321569 0.741176 1
0.741176 0.321569 0.741176 1
0.741176 0.321569 0.741176 1
0.741176 0.321569 0.741176 1
0.741176 0.321569 0.741176 1
0.741176 0.321569 0.741176 1
0.741176 0.321569 0.741176 1
0.741176 0.321569 0.741176 1
0.741176 0.321569 0.741176 1
0.741176 0.321569 0.741176 1
0.741176 0.321569 0.741176 1
0.741176 0.321569 0.741176 1
0.741176 0.321569 0.741176 1
0.741176 0.321569 0.741176 1
0.741176 0.321569 0.741176 1
0.741176 0.321569 0.741176 1
0.741176 0.321569 0.741176 1
0.741176 0.321569 0.741176 1
0.741176 0.321569 0.741176 1
0.741176 0.321569 0.741176 1
0.741176 0.321569 0.741176 1
0.741176 0.321569 0.741176 1
0.741176 0.321569 0.741176 1
0.741176 0.321569 0.741176 1
0.741176 0.321569 0.741176 1
0.741176 0.321569 0.741176 1
0.741176 0.321569 0.741176 1
0.741176 0.321569 0.741176 1
0.741176 0.321569 0.741176 1
0.741176 0.321569 0.741176 1
0.741176 0.321569 0.741176 1
0.741176 0.321569 0.741176 1
0.741176 0.321569 0.741176 1
0.741176 0.321569 0.741176 1
0.741176 0.321569 0.741176 1
0.741176 0.321569 0.741176 1
0.741176 0.321569 0.741176 1
0.741176 0.321569 0.741176 1
0.741176 0.321569 0.741176 1
0.741176 0.321569 0.741176 1
0.741176 0.321569 0.741176 1
0.741176 0.321569 0.741176 1
0.741176 0.321569 0.741176 1
0.741176 0.321569 0.741176 1
0.741176 0.321569 0.741176 1
0.741176 0.321569 0.741176 1
0.741176 0.321569 0.741176 1
0.741176 0.321569 0.741176 1
0.741176 0.321569 0.741176 1
0.741176 0.321569 0.741176 1
0.741176 0.321569 0.741176 1
0.741176 0.321569 0.741176 1
0.741176 0.321569 0.741176 1
0.741176 0.321569 0.741176 1
0.741176 0.321569 0.741176 1
0.741176 0.321569 0.741176 1
0.741176 0.321569 0.741176 1
0.741176 0.321569 0.741176 1
0.741176 0.321569 0.741176 1
0.741176 0.321569 0.741176 1
0.741176 0.321569 0.741176 1
0.741176 0.321569 0.741176 1
0.741176 0.321569 0.741176 1
0.741176 0.321569 0.741176 1
0.741176 0.321569 0.741176 1
0.741176 0.321569 0.741176 1
0.741176 0.321569 0.741176 1
0.741176 0.321569 0.741176 1
0.741176 0.321569 0.741176 1
0.741176 0.321569 0.741176 1
0.741176 0.321569 0.741176 1
0.741176 0.321569 0.741176 1
0.741176 0.321569 0.741176 1
0.741176 0.321569 0.741176 1
0.741176 0.321569 0.741176 1
0.741176 0.321569 0.741176 1
0.741176 0.321569 0.741176 1
0.741176 0.321569 0.741176 1
0.741176 0.321569 0.741176 1
0.741176 0.321569 0.741176 1
0.741176 0.321569 0.741176 1
0.741176 0.321569 0.741176 1
0.741176 0.321569 0.741176 1
0.741176 0.321569 0.741176 1
0.741176 0.321569 0.741176 1
0.741176 0.321569 0.741176 1
0.741176 0.321569 0.741176 1
0.741176 0.321569 0.741176 1
0.741176 0.321569 0.741176 1
0.741176 0.321569 0.741176 1
0.741176 0.321569 0.741176 1
0.741176 0.321569 0.741176 1
0.741176 0.321569 0.741176 1
0.741176 0.321569 0.741176 1
0.741176 0.321569 0.741176 1
0.741176 0.321569 0.741176 1
0.741176 0.321569 0.741176 1
0.741176 0.321569 0.741176 1
0.741176 0.321569 0.741176 1
0.741176 0.321569 0.741176 1
0.741176 0.321569 0.741176 1
0.741176 0.321569 0.741176 1
0.741176 0.321569 0.741176 1
0.741176 0.321569 0.741176 1
0.741176 0.321569 0.741176 1
0.741176 0.321569 0.741176 1
0.741176 0.321569 0.741176 1
0.741176 0.321569 0.741176 1
0.741176 0.321569 0.741176 1
0.741176 0.321569 0.741176 1
0.741176 0.321569 0.741176 1
0.741176 0.321569 0.741176 1
0.741176 0.321569 0.741176 1
0.741176 0.321569 0.741176 1
0.741176 0.321569 0.741176 1
0.741176 0.321569 0.741176 1
0.741176 0.321569 0.741176 1
0.741176 0.321569 0.741176 1
0.741176 0.321569 0.741176 1
0.741176 0.321569 0.741176 1
0.741176 0.321569 0.741176 1
0.741176 0.321569 0.741176 1
0.741176 0.321569 0.741176 1
0.741176 0.321569 0.741176 1
0.741176 0.321569 0.741176 1
0.741176 0.321569 0.741176 1
0.741176 0.321569 0.741176 1
0.741176 0.321569 0.741176 1
0.741176 0.321569 0.741176 1
0.741176 0.321569 0.741176 1
0.741176 0.321569 0.741176 1
0.741176 0.321569 0.741176 1
0.741176 0.321569 0.741176 1
0.741176 0.321569 0.741176 1
0.741176 0.321569 0.741176 1
0.741176 0.321569 0.741176 1
0.741176 0.321569 0.741176 1
0.741176 0.321569 0.741176 1
0.741176 0.321569 0.741176 1
0.741176 0.321569 0.741176 1
0.741176 0.321569 0.741176 1
0.741176 0.321569 0.741176 1
0.741176 0.321569 0.741176 1
0.741176 0.321569 0.741176 1
0.741176 0.321569 0.741176 1
0.741176 0.321569 0.741176 1
0.741176 0.321569 0.741176 1
0.741176 0.321569 0.741176 1
0.741176 0.321569 0.741176 1
0.741176 0.321569 0.741176 1
0.741176 0.321569 0.741176 1
0.741176 0.321569 0.741176 1
0.741176 0.321569 0.741176 1
0.741176 0.321569 0.741176 1
0.741176 0.321569 0.741176 1
0.741176 0.321569 0.741176 1
0.741176 0.321569 0.741176 1
0.741176 0.321569 0.741176 1
0.741176 0.321569 0.741176 1
0.741176 0.321569 0.741176 1
0.741176 0.321569 0.741176 1
0.741176 0.321569 0.741176 1
0.741176 0.321569 0.741176 1
0.741176 0.321569 0.741176 1
0.741176 0.321569 0.741176 1
0.741176 0.321569 0.741176 1
0.741176 0.321569 0.741176 1
0.741176 0.321569 0.741176 1
0.741176 0.321569 0.741176 1
0.741176 0.321569 0.741176 1
0.741176 0.321569 0.741176 1
0.741176 0.321569 0.741176 1
0.741176 0.321569 0.741176 1
0.741176 0.321569 0.741176 1
0.741176 0.321569 0.741176 1
0.741176 0.321569 0.741176 1
0.741176 0.321569 0.741176 1
0.741176 0.321569 0.741176 1
0.741176 0.321569 0.741176 1
0.741176 0.321569 0.741176 1
0.741176 0.321569 0.741176 1
0.741176 0.321569 0.741176 1
0.741176 0.321569 0.741176 1
0.741176 0.321569 0.741176 1
0.741176 0.321569 0.741176 1
0.741176 0.321569 0.741176 1
0.741176 0.321569 0.741176 1
0.741176 0.321569 0.741176 1
0.741176 0.321569 0.741176 1
0.741176 0.321569 0.741176 1
0.741176 0.321569 0.741176 1
0.741176 0.321569 0.741176 1
0.741176 0.321569 0.741176 1
0.741176 0.321569 0.741176 1
0.741176 0.321569 0.741176 1
0.741176 0.321569 0.741176 1
0.741176 0.321569 0.741176 1
0.741176 0.321569 0.741176 1
0.741176 0.321569 0.741176 1
0.741176 0.321569 0.741176 1
0.741176 0.321569 0.741176 1
0.741176 0.321569 0.741176 1
0.741176 0.321569 0.741176 1
0.741176 0.321569 0.741176 1
0.741176 0.321569 0.741176 1
0.741176 0.321569 0.741176 1
0.741176 0.321569 0.741176 1
0.741176 0.321569 0.741176 1
0.741176 0.321569 0.741176 1
0.741176 0.321569 0.741176 1
0.741176 0.321569 0.741176 1
0.741176 0.321569 0.741176 1
0.741176 0.321569 0.741176 1
0.741176 0.321569 0.741176 1
0.741176 0.321569 0.741176 1
0.741176 0.321569 0.741176 1
0.741176 0.321569 0.741176 1
0.741176 0.321569 0.741176 1
0.741176 0.321569 0.741176 1
0.741176 0.321569 0.741176 1
0.741176 0.321569 0.741176 1
0.741176 0.321569 0.741176 1
0.741176 0.321569 0.741176 1
0.741176 0.321569 0.741176 1
0.741176 0.321569 0.741176 1
0.741176 0.321569 0.741176 1
0.741176 0.321569 0.741176 1