# vtk DataFile Version 3.0
Gocad TSurf to VTK
ASCII
DATASET POLYDATA
POINTS 1930 float
21568472.422 4557746.203 -2675.000
21568334.625 4557935.395 -2400.000
21568481.641 4557739.371 -2673.093
21568594.828 4557796.781 -2100.000
21568324.047 4557864.898 -2675.000
21568333.953 4557848.750 -2703.632
21568109.047 4558146.883 -2400.000
21568056.172 4558094.012 -2675.000
21568436.203 4557923.676 -2100.000
21568157.750 4558198.613 -2100.000
21568537.781 4557911.961 -1800.000
21568255.125 4558302.074 -1500.000
21568692.875 4557778.016 -1800.000
21568716.891 4557833.270 -1500.000
21569102.906 4557637.586 -2100.000
21569105.828 4557637.113 -2088.837
21569015.438 4557610.813 -2393.250
21568983.594 4557601.066 -2500.000
21568961.516 4557594.305 -2574.053
21568932.219 4557601.402 -2590.331
21568960.672 4557594.105 -2576.906
21568483.109 4557738.230 -2672.788
21568959.859 4557593.910 -2579.692
21568957.750 4557593.410 -2586.886
21569106.094 4557637.070 -2087.839
21569118.328 4557639.824 -2045.802
21569094.688 4557679.320 -1800.000
21569118.813 4557640.223 -2044.405
21568938.953 4557748.676 -1500.000
21569186.297 4557704.590 -1800.000
21569197.281 4557721.684 -1762.436
21569132.625 4557652.340 -2000.000
21569126.875 4557646.742 -2021.438
21569208.406 4557738.984 -1724.426
21569210.188 4557740.168 -1717.517
21569267.359 4557760.859 -1612.185
21569259.719 4557776.871 -1500.000
21569273.078 4557762.930 -1601.642
21569037.000 4557775.730 -1200.000
21569389.484 4558057.719 -1200.000
21569292.516 4558077.164 -784.646
21569467.688 4558125.832 -1500.000
21569404.797 4557941.430 -1732.168
21569488.188 4558466.598 -1200.000
21569541.703 4558432.492 -1500.000
21569435.563 4558467.523 -785.237
21569554.531 4558736.578 -785.909
21569391.141 4558536.414 -372.456
21569586.875 4558692.188 -1200.000
21569770.172 4558833.184 -1200.000
21569615.719 4558601.684 -1500.000
21569595.219 4558398.387 -1800.000
21569856.063 4558715.625 -1800.000
21569545.875 4558193.945 -1800.000
21569586.172 4558257.961 -1920.735
21569493.266 4558084.965 -1799.985
21569493.266 4558084.973 -1800.000
21569457.781 4558023.020 -1763.053
21569450.250 4558009.863 -1755.208
21569438.875 4557992.730 -1749.439
21569515.109 4558124.500 -1825.865
21569529.734 4558150.977 -1843.189
21569565.469 4558211.012 -1875.164
21569578.797 4558241.234 -1904.500
21569529.719 4558150.961 -1843.205
21569582.203 4558248.953 -1911.990
21569582.188 4558248.922 -1911.963
21569612.375 4558317.336 -1978.366
21569678.406 4558429.734 -1963.884
21569616.672 4558323.363 -1979.554
21569725.797 4558511.371 -1951.858
21569855.359 4558692.809 -1872.798
21569898.156 4558730.555 -1822.177
21569916.906 4558747.094 -1800.000
21569948.781 4558774.094 -1761.053
21569915.344 4558827.277 -1500.000
21569982.516 4558802.668 -1719.834
21570348.250 4559030.574 -1200.000
21570348.406 4559017.105 -1273.121
21570379.203 4559089.777 -796.513
21569775.078 4558876.234 -785.625
21570549.422 4559094.066 -1000.151
21570661.375 4559134.070 -853.704
21570433.250 4559051.258 -1160.275
21570423.578 4559047.695 -1173.595
21570421.734 4559047.016 -1176.138
21570404.422 4559040.637 -1200.000
21570382.109 4559031.262 -1229.129
21570549.469 4559094.082 -1000.108
21570686.969 4559143.219 -820.217
21570690.125 4559144.344 -816.097
21570704.625 4559149.527 -797.114
21570741.531 4559162.602 -748.670
21570652.266 4559192.352 -393.026
21570810.734 4559183.254 -652.769
21570222.031 4559068.230 -381.113
21570178.313 4559053.875 -378.450
21570562.156 4559229.871 10.461
21570373.000 4559185.914 14.608
21570703.344 4559263.398 2.165
21570517.469 4559282.238 411.183
21570774.750 4559278.328 -1.983
21570881.859 4559300.719 -8.205
21570660.297 4559312.094 402.886
21570707.906 4559322.047 400.121
21570612.688 4559302.141 405.652
21570565.078 4559292.191 408.417
21570755.500 4559332.000 397.356
21570803.109 4559341.949 394.591
21570850.719 4559351.902 391.825
21570898.328 4559361.855 389.060
21570945.938 4559371.805 386.294
21571059.453 4559306.453 -13.732
21570993.547 4559381.758 383.529
21571045.281 4559255.660 -330.849
21571052.500 4559255.648 -317.984
21571023.734 4559249.973 -361.673
21571000.641 4559240.957 -390.895
21570989.500 4559236.609 -404.994
21570931.375 4559219.262 -485.561
21570856.828 4559197.012 -588.881
21570816.984 4559185.121 -644.101
21571052.484 4559255.648 -317.998
21571089.281 4559297.797 -10.051
21571068.094 4559260.398 -296.467
21571033.328 4559370.215 381.691
21571073.109 4559358.672 386.599
21571112.906 4559347.125 393.258
21571152.688 4559335.582 399.915
21571253.047 4559310.266 8.447
21571223.453 4559299.586 -97.827
21571192.469 4559324.039 406.572
21571230.359 4559356.500 411.262
21571268.266 4559388.957 415.955
21571339.266 4559372.148 14.290
21571345.875 4559377.629 19.159
21571333.391 4559367.348 9.894
21571328.484 4559363.328 6.216
21571326.188 4559361.445 4.492
21571324.359 4559359.941 3.119
21571316.906 4559353.848 -2.454
21571304.609 4559343.777 -11.661
21571301.547 4559341.270 -13.959
21571299.781 4559339.813 -15.292
21571293.328 4559334.531 -20.118
21571281.469 4559324.828 -28.981
21571275.969 4559320.320 -33.101
21571268.172 4559313.938 -38.936
21571259.047 4559306.457 -45.773
21571258.906 4559306.352 -45.871
21571258.703 4559306.184 -46.023
21571253.938 4559305.266 -53.360
21571251.000 4559304.699 -57.870
21571246.547 4559303.840 -64.721
21571232.516 4559301.133 -86.310
21571228.188 4559300.395 -91.813
21571349.688 4559380.801 21.977
21571351.719 4559382.480 23.467
21571353.063 4559383.594 24.456
21571375.797 4559402.445 41.180
21571376.031 4559402.641 41.353
21571378.375 4559404.590 43.084
21571388.688 4559413.141 50.674
21571395.766 4559419.000 55.874
21571398.922 4559422.012 57.709
21571306.156 4559421.418 420.646
21571399.266 4559422.344 57.909
21571402.313 4559425.230 59.667
21571402.328 4559425.258 59.653
21571344.063 4559453.879 425.339
21571403.891 4559426.742 60.591
21571403.969 4559426.820 60.640
21571405.594 4559428.367 61.580
21571425.531 4559447.359 73.148
21571428.344 4559450.043 74.782
21571429.094 4559450.762 75.221
21571429.531 4559451.180 75.474
21571430.016 4559451.637 75.754
21571381.953 4559486.340 430.030
21571430.172 4559451.781 75.842
21571434.875 4559456.262 78.571
21571419.844 4559518.797 434.720
21571440.156 4559461.313 81.608
21571457.750 4559551.258 438.481
21571450.625 4559471.410 87.541
21571454.703 4559475.344 89.852
21571455.203 4559475.824 90.136
21571464.703 4559484.973 95.512
21571477.203 4559497.023 102.595
21571478.625 4559498.402 103.404
21571480.688 4559500.387 104.571
21571480.750 4559500.438 104.601
21571480.859 4559500.543 104.662
21571508.188 4559523.336 103.288
21571508.344 4559523.469 103.280
21571510.563 4559525.316 103.163
21571517.563 4559531.270 102.582
21571495.641 4559583.719 436.463
21571519.797 4559533.172 102.396
21571524.516 4559537.191 102.004
21571533.531 4559616.176 434.446
21571528.969 4559540.969 101.637
21571531.453 4559543.078 101.432
21571571.438 4559648.637 432.429
21571532.844 4559544.262 101.317
21571535.531 4559546.543 101.095
21571559.578 4559566.988 99.084
21571562.297 4559569.297 98.857
21571562.641 4559569.594 98.828
21571567.313 4559572.789 94.802
21571633.609 4559618.102 37.697
21571635.203 4559619.191 36.321
21571609.328 4559681.098 430.411
21571636.000 4559619.734 35.638
21571636.563 4559620.125 35.148
21571647.219 4559713.555 428.393
21571643.391 4559624.785 29.277
21571653.750 4559631.863 20.361
21571664.625 4559641.176 19.782
21571663.500 4559638.523 11.971
21571685.125 4559746.016 426.376
21571723.016 4559778.477 424.358
21571760.922 4559810.938 422.341
21571749.875 4559714.211 15.243
21571695.125 4559660.152 -15.288
21571798.813 4559843.395 420.324
21571954.313 4559893.977 15.243
21571836.703 4559875.855 418.306
21571759.734 4559704.496 -71.444
21571845.063 4559763.508 -146.878
21571738.469 4559689.781 -52.637
21571967.109 4559856.055 -216.120
21571960.344 4559850.297 -215.230
21571976.219 4559863.809 -217.320
21571977.672 4559865.043 -217.512
21571980.250 4559867.230 -217.852
21571996.188 4559880.789 -219.964
21572000.063 4559884.090 -220.472
21572000.766 4559884.695 -220.566
21572016.047 4559897.691 -222.584
21572019.797 4559900.883 -223.081
21572026.344 4559906.453 -223.935
21572035.828 4559914.516 -225.186
21572037.734 4559915.898 -226.562
21572039.734 4559917.352 -228.012
21572050.797 4559925.359 -236.084
21572052.625 4559926.672 -237.382
21572057.938 4559930.492 -241.161
21572060.500 4559932.336 -242.982
21572079.125 4559945.738 -256.225
21572080.453 4559946.695 -257.172
21572099.531 4559960.414 -270.755
21572099.609 4559960.477 -270.816
21572099.703 4559960.547 -270.887
21572102.891 4559962.840 -273.153
21572118.813 4559974.293 -284.471
21572068.016 4559991.359 9.191
21572118.891 4559974.348 -284.524
21571912.500 4559940.773 414.271
21571874.609 4559908.316 416.289
21571950.406 4559973.234 412.254
21571988.297 4560005.695 410.236
21572026.188 4560038.156 408.218
21572181.703 4560088.738 3.138
21572190.813 4560022.250 -354.172
21572064.094 4560070.613 406.202
21572101.984 4560103.074 404.184
21572269.125 4560151.023 0.316
21572140.844 4560130.758 402.929
21572208.422 4560033.203 -371.249
21572213.578 4560036.270 -375.732
21572202.969 4560030.113 -367.074
21572198.641 4560027.313 -362.478
21572196.875 4560026.172 -360.606
21572196.141 4560025.703 -359.833
21572194.547 4560024.668 -358.134
21572216.109 4560037.773 -377.934
21572216.500 4560038.008 -378.277
21572218.000 4560038.895 -379.577
21572230.250 4560046.184 -390.240
21572233.516 4560048.121 -393.078
21572237.016 4560050.207 -396.130
21572397.422 4560171.289 -402.297
21572240.750 4560052.441 -399.428
21572356.563 4560213.309 -2.505
21572218.563 4560186.121 400.421
21572473.141 4560296.355 -6.268
21572374.000 4560296.852 395.405
21572531.438 4560337.879 -8.149
21572893.281 4560526.125 -405.220
21572529.438 4560407.578 390.389
21572490.578 4560379.898 391.643
21572568.297 4560435.262 389.135
21572607.453 4560453.004 389.348
21572740.563 4560485.129 -7.989
[...]
POINT_DATA 1930
COLOR_SCALARS GocadColor 4
0.960784 0.870588 0.701961 1
0.960784 0.870588 0.701961 1
0.960784 0.870588 0.701961 1
0.960784 0.870588 0.701961 1
0.960784 0.870588 0.701961 1
0.960784 0.870588 0.701961 1
0.960784 0.870588 0.701961 1
0.960784 0.870588 0.701961 1
0.960784 0.870588 0.701961 1
0.960784 0.870588 0.701961 1
0.960784 0.870588 0.701961 1
0.960784 0.870588 0.701961 1
0.960784 0.870588 0.701961 1
0.960784 0.870588 0.701961 1
0.960784 0.870588 0.701961 1
0.960784 0.870588 0.701961 1
0.960784 0.870588 0.701961 1
0.960784 0.870588 0.701961 1
0.960784 0.870588 0.701961 1
0.960784 0.870588 0.701961 1
0.960784 0.870588 0.701961 1
0.960784 0.870588 0.701961 1
0.960784 0.870588 0.701961 1
0.960784 0.870588 0.701961 1
0.960784 0.870588 0.701961 1
0.960784 0.870588 0.701961 1
0.960784 0.870588 0.701961 1
0.960784 0.870588 0.701961 1
0.960784 0.870588 0.701961 1
0.960784 0.870588 0.701961 1
0.960784 0.870588 0.701961 1
0.960784 0.870588 0.701961 1
0.960784 0.870588 0.701961 1
0.960784 0.870588 0.701961 1
0.960784 0.870588 0.701961 1
0.960784 0.870588 0.701961 1
0.960784 0.870588 0.701961 1
0.960784 0.870588 0.701961 1
0.960784 0.870588 0.701961 1
0.960784 0.870588 0.701961 1
0.960784 0.870588 0.701961 1
0.960784 0.870588 0.701961 1
0.960784 0.870588 0.701961 1
0.960784 0.870588 0.701961 1
0.960784 0.870588 0.701961 1
0.960784 0.870588 0.701961 1
0.960784 0.870588 0.701961 1
0.960784 0.870588 0.701961 1
0.960784 0.870588 0.701961 1
0.960784 0.870588 0.701961 1
0.960784 0.870588 0.701961 1
0.960784 0.870588 0.701961 1
0.960784 0.870588 0.701961 1
0.960784 0.870588 0.701961 1
0.960784 0.870588 0.701961 1
0.960784 0.870588 0.701961 1
0.960784 0.870588 0.701961 1
0.960784 0.870588 0.701961 1
0.960784 0.870588 0.701961 1
0.960784 0.870588 0.701961 1
0.960784 0.870588 0.701961 1
0.960784 0.870588 0.701961 1
0.960784 0.870588 0.701961 1
0.960784 0.870588 0.701961 1
0.960784 0.870588 0.701961 1
0.960784 0.870588 0.701961 1
0.960784 0.870588 0.701961 1
0.960784 0.870588 0.701961 1
0.960784 0.870588 0.701961 1
0.960784 0.870588 0.701961 1
0.960784 0.870588 0.701961 1
0.960784 0.870588 0.701961 1
0.960784 0.870588 0.701961 1
0.960784 0.870588 0.701961 1
0.960784 0.870588 0.701961 1
0.960784 0.870588 0.701961 1
0.960784 0.870588 0.701961 1
0.960784 0.870588 0.701961 1
0.960784 0.870588 0.701961 1
0.960784 0.870588 0.701961 1
0.960784 0.870588 0.701961 1
0.960784 0.870588 0.701961 1
0.960784 0.870588 0.701961 1
0.960784 0.870588 0.701961 1
0.960784 0.870588 0.701961 1
0.960784 0.870588 0.701961 1
0.960784 0.870588 0.701961 1
0.960784 0.870588 0.701961 1
0.960784 0.870588 0.701961 1
0.960784 0.870588 0.701961 1
0.960784 0.870588 0.701961 1
0.960784 0.870588 0.701961 1
0.960784 0.870588 0.701961 1
0.960784 0.870588 0.701961 1
0.960784 0.870588 0.701961 1
0.960784 0.870588 0.701961 1
0.960784 0.870588 0.701961 1
0.960784 0.870588 0.701961 1
0.960784 0.870588 0.701961 1
0.960784 0.870588 0.701961 1
0.960784 0.870588 0.701961 1
0.960784 0.870588 0.701961 1
0.960784 0.870588 0.701961 1
0.960784 0.870588 0.701961 1
0.960784 0.870588 0.701961 1
0.960784 0.870588 0.701961 1
0.960784 0.870588 0.701961 1
0.960784 0.870588 0.701961 1
0.960784 0.870588 0.701961 1
0.960784 0.870588 0.701961 1
0.960784 0.870588 0.701961 1
0.960784 0.870588 0.701961 1
0.960784 0.870588 0.701961 1
0.960784 0.870588 0.701961 1
0.960784 0.870588 0.701961 1
0.960784 0.870588 0.701961 1
0.960784 0.870588 0.701961 1
0.960784 0.870588 0.701961 1
0.960784 0.870588 0.701961 1
0.960784 0.870588 0.701961 1
0.960784 0.870588 0.701961 1
0.960784 0.870588 0.701961 1
0.960784 0.870588 0.701961 1
0.960784 0.870588 0.701961 1
0.960784 0.870588 0.701961 1
0.960784 0.870588 0.701961 1
0.960784 0.870588 0.701961 1
0.960784 0.870588 0.701961 1
0.960784 0.870588 0.701961 1
0.960784 0.870588 0.701961 1
0.960784 0.870588 0.701961 1
0.960784 0.870588 0.701961 1
0.960784 0.870588 0.701961 1
0.960784 0.870588 0.701961 1
0.960784 0.870588 0.701961 1
0.960784 0.870588 0.701961 1
0.960784 0.870588 0.701961 1
0.960784 0.870588 0.701961 1
0.960784 0.870588 0.701961 1
0.960784 0.870588 0.701961 1
0.960784 0.870588 0.701961 1
0.960784 0.870588 0.701961 1
0.960784 0.870588 0.701961 1
0.960784 0.870588 0.701961 1
0.960784 0.870588 0.701961 1
0.960784 0.870588 0.701961 1
0.960784 0.870588 0.701961 1
0.960784 0.870588 0.701961 1
0.960784 0.870588 0.701961 1
0.960784 0.870588 0.701961 1
0.960784 0.870588 0.701961 1
0.960784 0.870588 0.701961 1
0.960784 0.870588 0.701961 1
0.960784 0.870588 0.701961 1
0.960784 0.870588 0.701961 1
0.960784 0.870588 0.701961 1
0.960784 0.870588 0.701961 1
0.960784 0.870588 0.701961 1
0.960784 0.870588 0.701961 1
0.960784 0.870588 0.701961 1
0.960784 0.870588 0.701961 1
0.960784 0.870588 0.701961 1
0.960784 0.870588 0.701961 1
0.960784 0.870588 0.701961 1
0.960784 0.870588 0.701961 1
0.960784 0.870588 0.701961 1
0.960784 0.870588 0.701961 1
0.960784 0.870588 0.701961 1
0.960784 0.870588 0.701961 1
0.960784 0.870588 0.701961 1
0.960784 0.870588 0.701961 1
0.960784 0.870588 0.701961 1
0.960784 0.870588 0.701961 1
0.960784 0.870588 0.701961 1
0.960784 0.870588 0.701961 1
0.960784 0.870588 0.701961 1
0.960784 0.870588 0.701961 1
0.960784 0.870588 0.701961 1
0.960784 0.870588 0.701961 1
0.960784 0.870588 0.701961 1
0.960784 0.870588 0.701961 1
0.960784 0.870588 0.701961 1
0.960784 0.870588 0.701961 1
0.960784 0.870588 0.701961 1
0.960784 0.870588 0.701961 1
0.960784 0.870588 0.701961 1
0.960784 0.870588 0.701961 1
0.960784 0.870588 0.701961 1
0.960784 0.870588 0.701961 1
0.960784 0.870588 0.701961 1
0.960784 0.870588 0.701961 1
0.960784 0.870588 0.701961 1
0.960784 0.870588 0.701961 1
0.960784 0.870588 0.701961 1
0.960784 0.870588 0.701961 1
0.960784 0.870588 0.701961 1
0.960784 0.870588 0.701961 1
0.960784 0.870588 0.701961 1
0.960784 0.870588 0.701961 1
0.960784 0.870588 0.701961 1
0.960784 0.870588 0.701961 1
0.960784 0.870588 0.701961 1
0.960784 0.870588 0.701961 1
0.960784 0.870588 0.701961 1
0.960784 0.870588 0.701961 1
0.960784 0.870588 0.701961 1
0.960784 0.870588 0.701961 1
0.960784 0.870588 0.701961 1
0.960784 0.870588 0.701961 1
0.960784 0.870588 0.701961 1
0.960784 0.870588 0.701961 1
0.960784 0.870588 0.701961 1
0.960784 0.870588 0.701961 1
0.960784 0.870588 0.701961 1
0.960784 0.870588 0.701961 1
0.960784 0.870588 0.701961 1
0.960784 0.870588 0.701961 1
0.960784 0.870588 0.701961 1
0.960784 0.870588 0.701961 1
0.960784 0.870588 0.701961 1
0.960784 0.870588 0.701961 1
0.960784 0.870588 0.701961 1
0.960784 0.870588 0.701961 1
0.960784 0.870588 0.701961 1
0.960784 0.870588 0.701961 1
0.960784 0.870588 0.701961 1
0.960784 0.870588 0.701961 1
0.960784 0.870588 0.701961 1
0.960784 0.870588 0.701961 1
0.960784 0.870588 0.701961 1
0.960784 0.870588 0.701961 1
0.960784 0.870588 0.701961 1
0.960784 0.870588 0.701961 1
0.960784 0.870588 0.701961 1
0.960784 0.870588 0.701961 1
0.960784 0.870588 0.701961 1
0.960784 0.870588 0.701961 1
0.960784 0.870588 0.701961 1
0.960784 0.870588 0.701961 1
0.960784 0.870588 0.701961 1
0.960784 0.870588 0.701961 1
0.960784 0.870588 0.701961 1
0.960784 0.870588 0.701961 1
0.960784 0.870588 0.701961 1
0.960784 0.870588 0.701961 1
0.960784 0.870588 0.701961 1
0.960784 0.870588 0.701961 1
0.960784 0.870588 0.701961 1
0.960784 0.870588 0.701961 1
0.960784 0.870588 0.701961 1
0.960784 0.870588 0.701961 1
0.960784 0.870588 0.701961 1
0.960784 0.870588 0.701961 1
0.960784 0.870588 0.701961 1
0.960784 0.870588 0.701961 1
0.960784 0.870588 0.701961 1
0.960784 0.870588 0.701961 1
0.960784 0.870588 0.701961 1
0.960784 0.870588 0.701961 1
0.960784 0.870588 0.701961 1
0.960784 0.870588 0.701961 1
0.960784 0.870588 0.701961 1
0.960784 0.870588 0.701961 1
0.960784 0.870588 0.701961 1
0.960784 0.870588 0.701961 1
0.960784 0.870588 0.701961 1
0.960784 0.870588 0.701961 1
0.960784 0.870588 0.701961 1
0.960784 0.870588 0.701961 1
0.960784 0.870588 0.701961 1
0.960784 0.870588 0.701961 1
0.960784 0.870588 0.701961 1
0.960784 0.870588 0.701961 1
0.960784 0.870588 0.701961 1
0.960784 0.870588 0.701961 1
0.960784 0.870588 0.701961 1
0.960784 0.870588 0.701961 1
0.960784 0.870588 0.701961 1
0.960784 0.870588 0.701961 1
0.960784 0.870588 0.701961 1
0.960784 0.870588 0.701961 1
0.960784 0.870588 0.701961 1
0.960784 0.870588 0.701961 1
0.960784 0.870588 0.701961 1
0.960784 0.870588 0.701961 1
0.960784 0.870588 0.701961 1
0.960784 0.870588 0.701961 1
0.960784 0.870588 0.701961 1
0.960784 0.870588 0.701961 1
0.960784 0.870588 0.701961 1
0.960784 0.870588 0.701961 1
0.960784 0.870588 0.701961 1
0.960784 0.870588 0.701961 1
0.960784 0.870588 0.701961 1
0.960784 0.870588 0.701961 1
0.960784 0.870588 0.701961 1
0.960784 0.870588 0.701961 1
0.960784 0.870588 0.701961 1
0.960784 0.870588 0.701961 1
0.960784 0.870588 0.701961 1
0.960784 0.870588 0.701961 1
0.960784 0.870588 0.701961 1
0.960784 0.870588 0.701961 1
0.960784 0.870588 0.701961 1
0.960784 0.870588 0.701961 1
0.960784 0.870588 0.701961 1
0.960784 0.870588 0.701961 1
0.960784 0.870588 0.701961 1
0.960784 0.870588 0.701961 1
0.960784 0.870588 0.701961 1
0.960784 0.870588 0.701961 1
0.960784 0.870588 0.701961 1
0.960784 0.870588 0.701961 1
0.960784 0.870588 0.701961 1
0.960784 0.870588 0.701961 1
0.960784 0.870588 0.701961 1
0.960784 0.870588 0.701961 1
0.960784 0.870588 0.701961 1
0.960784 0.870588 0.701961 1
0.960784 0.870588 0.701961 1
0.960784 0.870588 0.701961 1
0.960784 0.870588 0.701961 1
0.960784 0.870588 0.701961 1
0.960784 0.870588 0.701961 1
0.960784 0.870588 0.701961 1
0.960784 0.870588 0.701961 1
0.960784 0.870588 0.701961 1
0.960784 0.870588 0.701961 1
0.960784 0.870588 0.701961 1
0.960784 0.870588 0.701961 1
0.960784 0.870588 0.701961 1
0.960784 0.870588 0.701961 1
0.960784 0.870588 0.701961 1
0.960784 0.870588 0.701961 1
0.960784 0.870588 0.701961 1
0.960784 0.870588 0.701961 1
0.960784 0.870588 0.701961 1
0.960784 0.870588 0.701961 1
0.960784 0.870588 0.701961 1
0.960784 0.870588 0.701961 1
0.960784 0.870588 0.701961 1
0.960784 0.870588 0.701961 1
0.960784 0.870588 0.701961 1
0.960784 0.870588 0.701961 1
0.960784 0.870588 0.701961 1
0.960784 0.870588 0.701961 1
0.960784 0.870588 0.701961 1
0.960784 0.870588 0.701961 1
0.960784 0.870588 0.701961 1
0.960784 0.870588 0.701961 1
0.960784 0.870588 0.701961 1
0.960784 0.870588 0.701961 1
0.960784 0.870588 0.701961 1
0.960784 0.870588 0.701961 1
0.960784 0.870588 0.701961 1
0.960784 0.870588 0.701961 1
0.960784 0.870588 0.701961 1
0.960784 0.870588 0.701961 1
0.960784 0.870588 0.701961 1
0.960784 0.870588 0.701961 1
0.960784 0.870588 0.701961 1
0.960784 0.870588 0.701961 1
0.960784 0.870588 0.701961 1
0.960784 0.870588 0.701961 1
0.960784 0.870588 0.701961 1
0.960784 0.870588 0.701961 1
0.960784 0.870588 0.701961 1
0.960784 0.870588 0.701961 1
0.960784 0.870588 0.701961 1
0.960784 0.870588 0.701961 1
0.960784 0.870588 0.701961 1
0.960784 0.870588 0.701961 1
0.960784 0.870588 0.701961 1
0.960784 0.870588 0.701961 1
0.960784 0.870588 0.701961 1
0.960784 0.870588 0.701961 1
0.960784 0.870588 0.701961 1
0.960784 0.870588 0.701961 1
0.960784 0.870588 0.701961 1
0.960784 0.870588 0.701961 1
0.960784 0.870588 0.701961 1
0.960784 0.870588 0.701961 1
0.960784 0.870588 0.701961 1
0.960784 0.870588 0.701961 1
0.960784 0.870588 0.701961 1
0.960784 0.870588 0.701961 1
0.960784 0.870588 0.701961 1
0.960784 0.870588 0.701961 1
0.960784 0.870588 0.701961 1
0.960784 0.870588 0.701961 1
0.960784 0.870588 0.701961 1
0.960784 0.870588 0.701961 1
0.960784 0.870588 0.701961 1
0.960784 0.870588 0.701961 1
0.960784 0.870588 0.701961 1
0.960784 0.870588 0.701961 1
0.960784 0.870588 0.701961 1
0.960784 0.870588 0.701961 1
0.960784 0.870588 0.701961 1
0.960784 0.870588 0.701961 1
0.960784 0.870588 0.701961 1
0.960784 0.870588 0.701961 1
0.960784 0.870588 0.701961 1
0.960784 0.870588 0.701961 1
0.960784 0.870588 0.701961 1
0.960784 0.870588 0.701961 1
0.960784 0.870588 0.701961 1
0.960784 0.870588 0.701961 1
0.960784 0.870588 0.701961 1
0.960784 0.870588 0.701961 1
0.960784 0.870588 0.701961 1
0.960784 0.870588 0.701961 1
0.960784 0.870588 0.701961 1
0.960784 0.870588 0.701961 1
0.960784 0.870588 0.701961 1
0.960784 0.870588 0.701961 1
0.960784 0.870588 0.701961 1
0.960784 0.870588 0.701961 1
0.960784 0.870588 0.701961 1
0.960784 0.870588 0.701961 1
0.960784 0.870588 0.701961 1
0.960784 0.870588 0.701961 1
0.960784 0.870588 0.701961 1
0.960784 0.870588 0.701961 1
0.960784 0.870588 0.701961 1
0.960784 0.870588 0.701961 1
0.960784 0.870588 0.701961 1
0.960784 0.870588 0.701961 1
0.960784 0.870588 0.701961 1
0.960784 0.870588 0.701961 1
0.960784 0.870588 0.701961 1
0.960784 0.870588 0.701961 1
0.960784 0.870588 0.701961 1
0.960784 0.870588 0.701961 1
0.960784 0.870588 0.701961 1
0.960784 0.870588 0.701961 1
0.960784 0.870588 0.701961 1
0.960784 0.870588 0.701961 1
0.960784 0.870588 0.701961 1
0.960784 0.870588 0.701961 1
0.960784 0.870588 0.701961 1
0.960784 0.870588 0.701961 1
0.960784 0.870588 0.701961 1
0.960784 0.870588 0.701961 1
0.960784 0.870588 0.701961 1
0.960784 0.870588 0.701961 1
0.960784 0.870588 0.701961 1
0.960784 0.870588 0.701961 1
0.960784 0.870588 0.701961 1
0.960784 0.870588 0.701961 1
0.960784 0.870588 0.701961 1
0.960784 0.870588 0.701961 1
0.960784 0.870588 0.701961 1
0.960784 0.870588 0.701961 1
0.960784 0.870588 0.701961 1
0.960784 0.870588 0.701961 1
0.960784 0.870588 0.701961 1
0.960784 0.870588 0.701961 1
0.960784 0.870588 0.701961 1
0.960784 0.870588 0.701961 1
0.960784 0.870588 0.701961 1
0.960784 0.870588 0.701961 1
0.960784 0.870588 0.701961 1
0.960784 0.870588 0.701961 1
0.960784 0.870588 0.701961 1
0.960784 0.870588 0.701961 1
0.960784 0.870588 0.701961 1
0.960784 0.870588 0.701961 1
0.960784 0.870588 0.701961 1
0.960784 0.870588 0.701961 1
0.960784 0.870588 0.701961 1
0.960784 0.870588 0.701961 1
0.960784 0.870588 0.701961 1
0.960784 0.870588 0.701961 1
0.960784 0.870588 0.701961 1
0.960784 0.870588 0.701961 1
0.960784 0.870588 0.701961 1
0.960784 0.870588 0.701961 1
0.960784 0.870588 0.701961 1
0.960784 0.870588 0.701961 1
0.960784 0.870588 0.701961 1
0.960784 0.870588 0.701961 1
0.960784 0.870588 0.701961 1
0.960784 0.870588 0.701961 1
0.960784 0.870588 0.701961 1
0.960784 0.870588 0.701961 1
0.960784 0.870588 0.701961 1
0.960784 0.870588 0.701961 1
0.960784 0.870588 0.701961 1
0.960784 0.870588 0.701961 1
0.960784 0.870588 0.701961 1
0.960784 0.870588 0.701961 1
0.960784 0.870588 0.701961 1
0.960784 0.870588 0.701961 1
0.960784 0.870588 0.701961 1
0.960784 0.870588 0.701961 1
0.960784 0.870588 0.701961 1
0.960784 0.870588 0.701961 1
0.960784 0.870588 0.701961 1
0.960784 0.870588 0.701961 1
0.960784 0.870588 0.701961 1
0.960784 0.870588 0.701961 1
0.960784 0.870588 0.701961 1
0.960784 0.870588 0.701961 1
0.960784 0.870588 0.701961 1
0.960784 0.870588 0.701961 1
0.960784 0.870588 0.701961 1
0.960784 0.870588 0.701961 1
0.960784 0.870588 0.701961 1
0.960784 0.870588 0.701961 1
0.960784 0.870588 0.701961 1
0.960784 0.870588 0.701961 1
0.960784 0.870588 0.701961 1
0.960784 0.870588 0.701961 1
0.960784 0.870588 0.701961 1
0.960784 0.870588 0.701961 1
0.960784 0.870588 0.701961 1
0.960784 0.870588 0.701961 1
0.960784 0.870588 0.701961 1
0.960784 0.870588 0.701961 1
0.960784 0.870588 0.701961 1
0.960784 0.870588 0.701961 1
0.960784 0.870588 0.701961 1
0.960784 0.870588 0.701961 1
0.960784 0.870588 0.701961 1
0.960784 0.870588 0.701961 1
0.960784 0.870588 0.701961 1
0.960784 0.870588 0.701961 1
0.960784 0.870588 0.701961 1
0.960784 0.870588 0.701961 1
0.960784 0.870588 0.701961 1
0.960784 0.870588 0.701961 1
0.960784 0.870588 0.701961 1
0.960784 0.870588 0.701961 1
0.960784 0.870588 0.701961 1
0.960784 0.870588 0.701961 1
0.960784 0.870588 0.701961 1
0.960784 0.870588 0.701961 1
0.960784 0.870588 0.701961 1
0.960784 0.870588 0.701961 1
0.960784 0.870588 0.701961 1
0.960784 0.870588 0.701961 1
0.960784 0.870588 0.701961 1
0.960784 0.870588 0.701961 1
0.960784 0.870588 0.701961 1
0.960784 0.870588 0.701961 1
0.960784 0.870588 0.701961 1
0.960784 0.870588 0.701961 1
0.960784 0.870588 0.701961 1
0.960784 0.870588 0.701961 1
0.960784 0.870588 0.701961 1
0.960784 0.870588 0.701961 1
0.960784 0.870588 0.701961 1
0.960784 0.870588 0.701961 1
0.960784 0.870588 0.701961 1
0.960784 0.870588 0.701961 1
0.960784 0.870588 0.701961 1
0.960784 0.870588 0.701961 1
0.960784 0.870588 0.701961 1
0.960784 0.870588 0.701961 1
0.960784 0.870588 0.701961 1
0.960784 0.870588 0.701961 1
0.960784 0.870588 0.701961 1
0.960784 0.870588 0.701961 1
0.960784 0.870588 0.701961 1
0.960784 0.870588 0.701961 1
0.960784 0.870588 0.701961 1
0.960784 0.870588 0.701961 1
0.960784 0.870588 0.701961 1
0.960784 0.870588 0.701961 1
0.960784 0.870588 0.701961 1
0.960784 0.870588 0.701961 1
0.960784 0.870588 0.701961 1
0.960784 0.870588 0.701961 1
0.960784 0.870588 0.701961 1
0.960784 0.870588 0.701961 1
0.960784 0.870588 0.701961 1
0.960784 0.870588 0.701961 1
0.960784 0.870588 0.701961 1
0.960784 0.870588 0.701961 1
0.960784 0.870588 0.701961 1
0.960784 0.870588 0.701961 1
0.960784 0.870588 0.701961 1
0.960784 0.870588 0.701961 1
0.960784 0.870588 0.701961 1
0.960784 0.870588 0.701961 1
0.960784 0.870588 0.701961 1
0.960784 0.870588 0.701961 1
0.960784 0.870588 0.701961 1
0.960784 0.870588 0.701961 1
0.960784 0.870588 0.701961 1
0.960784 0.870588 0.701961 1
0.960784 0.870588 0.701961 1
0.960784 0.870588 0.701961 1
0.960784 0.870588 0.701961 1
0.960784 0.870588 0.701961 1
0.960784 0.870588 0.701961 1
0.960784 0.870588 0.701961 1
0.960784 0.870588 0.701961 1
0.960784 0.870588 0.701961 1
0.960784 0.870588 0.701961 1
0.960784 0.870588 0.701961 1
0.960784 0.870588 0.701961 1
0.960784 0.870588 0.701961 1
0.960784 0.870588 0.701961 1
0.960784 0.870588 0.701961 1
0.960784 0.870588 0.701961 1
0.960784 0.870588 0.701961 1
0.960784 0.870588 0.701961 1
0.960784 0.870588 0.701961 1
0.960784 0.870588 0.701961 1
0.960784 0.870588 0.701961 1
0.960784 0.870588 0.701961 1
0.960784 0.870588 0.701961 1
0.960784 0.870588 0.701961 1
0.960784 0.870588 0.701961 1
0.960784 0.870588 0.701961 1
0.960784 0.870588 0.701961 1
0.960784 0.870588 0.701961 1
0.960784 0.870588 0.701961 1
0.960784 0.870588 0.701961 1
0.960784 0.870588 0.701961 1
0.960784 0.870588 0.701961 1
0.960784 0.870588 0.701961 1
0.960784 0.870588 0.701961 1
0.960784 0.870588 0.701961 1
0.960784 0.870588 0.701961 1
0.960784 0.870588 0.701961 1
0.960784 0.870588 0.701961 1
0.960784 0.870588 0.701961 1
0.960784 0.870588 0.701961 1
0.960784 0.870588 0.701961 1
0.960784 0.870588 0.701961 1
0.960784 0.870588 0.701961 1
0.960784 0.870588 0.701961 1
0.960784 0.870588 0.701961 1
0.960784 0.870588 0.701961 1
0.960784 0.870588 0.701961 1
0.960784 0.870588 0.701961 1
0.960784 0.870588 0.701961 1
0.960784 0.870588 0.701961 1
0.960784 0.870588 0.701961 1
0.960784 0.870588 0.701961 1
0.960784 0.870588 0.701961 1
0.960784 0.870588 0.701961 1
0.960784 0.870588 0.701961 1
0.960784 0.870588 0.701961 1
0.960784 0.870588 0.701961 1
0.960784 0.870588 0.701961 1
0.960784 0.870588 0.701961 1
0.960784 0.870588 0.701961 1
0.960784 0.870588 0.701961 1
0.960784 0.870588 0.701961 1
0.960784 0.870588 0.701961 1
0.960784 0.870588 0.701961 1
0.960784 0.870588 0.701961 1
0.960784 0.870588 0.701961 1
0.960784 0.870588 0.701961 1
0.960784 0.870588 0.701961 1
0.960784 0.870588 0.701961 1
0.960784 0.870588 0.701961 1
0.960784 0.870588 0.701961 1
0.960784 0.870588 0.701961 1
0.960784 0.870588 0.701961 1
0.960784 0.870588 0.701961 1
0.960784 0.870588 0.701961 1
0.960784 0.870588 0.701961 1
0.960784 0.870588 0.701961 1
0.960784 0.870588 0.701961 1
0.960784 0.870588 0.701961 1
0.960784 0.870588 0.701961 1
0.960784 0.870588 0.701961 1
0.960784 0.870588 0.701961 1
0.960784 0.870588 0.701961 1
0.960784 0.870588 0.701961 1
0.960784 0.870588 0.701961 1
0.960784 0.870588 0.701961 1
0.960784 0.870588 0.701961 1
0.960784 0.870588 0.701961 1
0.960784 0.870588 0.701961 1
0.960784 0.870588 0.701961 1
0.960784 0.870588 0.701961 1
0.960784 0.870588 0.701961 1
0.960784 0.870588 0.701961 1
0.960784 0.870588 0.701961 1
0.960784 0.870588 0.701961 1
0.960784 0.870588 0.701961 1
0.960784 0.870588 0.701961 1