# vtk DataFile Version 3.0
Gocad TSurf to VTK
ASCII
DATASET POLYDATA
POINTS 624 float
21586386.813 4556166.301 723.132
21586436.305 4556172.156 724.307
21586394.445 4556123.719 42.349
21586431.563 4556128.109 43.230
21586337.328 4556160.449 721.957
21586283.109 4556110.551 39.706
21586150.867 4556024.004 -641.371
21586287.844 4556154.598 720.782
21586238.359 4556148.746 719.608
21586219.359 4556089.301 39.706
21586188.867 4556142.891 718.433
21586139.383 4556137.039 717.258
21586101.320 4556115.906 715.866
21586011.320 4556017.387 34.812
21586063.258 4556094.770 714.474
21586025.195 4556073.637 713.082
21585987.141 4556052.500 711.690
21585897.141 4555953.984 30.636
21585978.422 4555950.570 -644.155
21585949.078 4556031.367 710.299
21585911.016 4556010.230 708.907
21585872.953 4555989.098 707.515
21585839.359 4555969.313 706.253
21585846.742 4555924.309 28.743
21585805.758 4555949.531 704.991
21585772.156 4555929.750 703.730
21585702.977 4555942.543 136.981
21585726.703 4555940.125 28.051
21585701.594 4555938.055 175.636
21585726.242 4555919.328 526.868
21585701.453 4555936.555 190.545
21585728.195 4555917.844 554.724
21585729.617 4555916.766 574.947
21585738.563 4555909.965 702.468
21585725.445 4555919.363 521.566
21585725.867 4555919.609 526.869
21585741.750 4555952.578 703.784
21585700.484 4555938.898 175.636
21585727.938 4555918.039 555.426
21585729.422 4555916.910 575.985
21585738.563 4555909.965 702.468
21585698.086 4555946.234 137.196
21585691.305 4555966.961 28.515
21585692.055 4555976.969 28.824
21585715.016 4555960.563 -52.595
21585744.945 4555995.188 705.099
21585748.141 4556037.801 706.415
21585751.328 4556080.414 707.731
21585698.000 4556243.625 33.014
21585644.203 4556347.340 -643.918
21585751.211 4556128.336 709.135
21585751.102 4556176.262 709.947
21585750.984 4556224.184 710.686
21585750.867 4556272.105 711.425
21585697.828 4556315.508 34.123
21585750.758 4556320.027 712.164
21585697.313 4556405.570 35.232
21585644.148 4556371.305 -643.548
21585750.641 4556367.953 712.903
21585750.531 4556415.875 713.643
21585750.414 4556463.797 714.382
21585697.141 4556477.453 36.341
21585750.297 4556511.719 715.121
21585750.188 4556559.645 715.860
21585692.234 4556585.559 37.906
21585643.922 4556467.148 -642.070
21585750.070 4556607.566 716.600
21585743.766 4556655.859 717.207
21585737.453 4556704.156 717.815
21585682.773 4556658.000 38.817
21585731.148 4556752.449 718.423
21585724.844 4556800.742 719.031
21585664.203 4556991.535 40.641
21585611.367 4557157.867 -637.955
21585718.539 4556849.039 719.639
21585712.227 4556897.332 720.246
21585705.922 4556945.629 720.854
21585699.617 4556993.922 721.462
21585659.477 4557027.754 41.097
21585693.313 4557042.215 722.070
21585687.000 4557090.512 722.678
21585652.023 4557243.680 44.274
21585680.695 4557138.805 723.286
21585683.688 4557186.477 724.090
21585686.688 4557234.148 724.894
21585689.680 4557281.820 725.698
21585654.266 4557279.434 44.877
21585692.672 4557329.492 726.502
21585671.508 4557491.188 46.094
21585681.938 4557661.297 -633.577
21585695.672 4557377.164 727.307
21585698.664 4557424.836 728.125
21585711.086 4557466.879 729.073
21585708.766 4557617.313 48.937
21585723.500 4557508.922 730.020
21585735.922 4557550.965 730.968
21585748.344 4557593.008 731.916
21585727.891 4557646.824 49.635
21585773.844 4557632.355 732.847
21585799.352 4557671.707 731.599
21585824.852 4557711.055 729.444
21585844.070 4557835.703 41.951
21585799.531 4557861.977 -636.989
21585850.352 4557750.402 726.023
21585875.859 4557789.754 722.601
21585901.359 4557829.102 719.180
21585937.164 4557851.852 716.210
21585890.047 4557882.277 37.157
21585972.969 4557874.598 713.240
21586008.773 4557897.348 710.270
21586078.219 4557990.188 28.247
21586117.781 4558056.234 -648.607
21586044.586 4557920.098 707.299
21586080.391 4557942.844 704.329
21586116.195 4557965.594 702.345
21586163.883 4557980.258 702.785
21586140.836 4558018.246 27.089
21586211.570 4557994.922 703.226
21586259.258 4558009.586 703.666
21586306.938 4558024.250 704.106
21586283.891 4558062.242 28.410
21586213.156 4558085.566 -647.727
21586354.625 4558038.918 704.546
21586402.313 4558053.582 704.987
21586450.000 4558068.246 705.427
21586569.406 4558132.484 30.644
21586497.688 4558082.910 705.867
21586542.648 4558087.242 707.525
21586587.609 4558091.570 709.184
21586603.125 4558135.730 31.888
21586573.672 4558175.563 -647.066
21586632.563 4558095.898 710.842
21586677.523 4558100.230 712.500
21586722.484 4558104.563 714.158
21586704.281 4558145.477 35.619
21586767.445 4558108.891 715.817
21586812.406 4558113.219 717.475
21586857.359 4558117.551 719.133
21586983.227 4558157.805 44.465
21586902.320 4558121.883 720.791
21586947.281 4558126.211 722.449
21586994.305 4558117.223 725.953
21587089.023 4558137.578 47.968
21587041.328 4558108.230 728.299
21587088.352 4558099.242 729.461
21587135.367 4558090.254 730.623
21587124.289 4558130.836 48.839
21587328.539 4558131.750 -632.945
21587182.391 4558081.266 731.786
21587229.414 4558072.273 732.948
21587276.438 4558063.285 734.111
21587323.461 4558054.297 735.273
21587373.023 4558084.031 52.327
21587370.484 4558045.305 736.436
21587417.500 4558036.316 737.598
21587549.359 4558050.320 56.686
21587832.797 4558024.469 -627.133
21587464.523 4558027.328 738.760
21587511.547 4558018.340 739.922
21587558.570 4558009.348 741.085
21587605.594 4558000.359 742.247
21587754.461 4558005.676 58.429
21587652.617 4557991.371 743.410
21587699.633 4557982.383 744.572
21587746.656 4557973.391 745.735
21587825.000 4557992.188 60.173
21587793.680 4557964.402 746.897
21587835.789 4557948.230 749.064
21587919.750 4557955.805 63.729
21587856.313 4558019.977 -626.552
21587877.906 4557932.063 751.231
21587920.016 4557915.891 751.638
21587962.125 4557899.719 751.668
21588046.078 4557907.293 63.817
21588004.234 4557883.547 751.697
21588046.344 4557867.375 751.727
21588088.461 4557851.207 751.756
21588224.109 4557818.379 64.301
21588354.266 4557780.563 -621.830
21588130.570 4557835.035 751.786
21588167.172 4557813.875 752.402
21588203.781 4557792.711 753.018
21588279.023 4557786.633 65.226
21588240.391 4557771.547 753.634
21588276.992 4557750.387 754.687
21588361.383 4557739.020 68.494
21588313.594 4557729.227 756.339
21588350.203 4557708.063 757.992
21588386.352 4557676.211 760.618
21588415.609 4557691.242 72.433
21588444.859 4557706.273 -615.752
21588422.500 4557644.355 763.244
21588458.648 4557612.504 765.869
21588469.828 4557643.461 76.371
21588494.797 4557580.648 768.495
21588530.945 4557548.797 771.121
21588626.047 4557513.516 80.310
21588606.656 4557555.883 -327.318
21588567.094 4557516.941 773.747
21588603.234 4557485.090 776.372
21588707.375 4557441.848 86.218
21588705.609 4557463.305 -200.063
21588639.383 4557453.234 778.998
21588675.531 4557421.383 781.623
21588711.680 4557389.527 784.249
21588761.602 4557394.066 90.156
21588757.375 4557412.949 -128.092
21588747.828 4557357.676 786.875
21588783.977 4557325.820 789.501
21588864.234 4557295.738 98.326
21588805.125 4557363.344 -65.299
21588820.125 4557293.969 792.126
21588852.398 4557260.270 794.947
21588884.672 4557226.570 797.769
21588888.438 4557270.461 100.442
21588847.008 4557320.008 -15.446
21588916.945 4557192.871 800.590
21588954.367 4557201.688 101.573
21588990.102 4557162.258 133.722
21588942.508 4557214.551 90.891
21588929.531 4557228.621 79.202
21588906.234 4557254.004 55.531
21588903.898 4557256.602 53.150
21588872.711 4557291.555 15.512
21589005.656 4557145.086 147.724
21588949.211 4557159.176 803.411
21589007.609 4557142.945 149.477
21588981.484 4557125.477 806.232
21589009.695 4557140.652 151.356
21589013.758 4557091.777 809.053
21589011.938 4557138.184 153.375
21589032.992 4557115.035 172.326
21589054.594 4557091.297 191.762
21589046.031 4557058.078 811.874
21589058.430 4557087.074 195.221
21589072.023 4557020.664 815.078
21589061.734 4557082.129 198.146
21589098.016 4556983.246 818.282
21589065.227 4557076.895 201.243
21589069.711 4557070.684 205.227
21589107.391 4557018.398 238.761
21589133.602 4556982.078 261.607
21589124.008 4556945.832 821.486
21589138.883 4556974.129 266.178
21589143.961 4556966.473 270.579
21589153.656 4556951.914 278.600
21589150.008 4556908.414 824.690
21589159.508 4556943.129 283.440
21589176.000 4556871.000 827.874
21589165.656 4556933.883 288.532
21589201.992 4556833.582 831.043
21589172.141 4556924.141 293.899
21589246.148 4556813.730 355.199
21589260.586 4556792.570 362.976
21589227.984 4556796.168 834.212
21589265.078 4556785.934 365.380
21589269.109 4556780.070 366.617
21589259.758 4556761.887 838.093
21589279.742 4556768.359 371.890
21589324.250 4556719.383 393.973
21589291.523 4556727.605 843.130
21589335.563 4556706.945 399.591
21589323.297 4556693.324 847.354
21589347.195 4556694.145 405.361
21589389.234 4556647.863 426.216
21589355.063 4556659.043 851.578
21589392.578 4556644.184 427.874
21589401.461 4556634.398 432.340
21589386.836 4556624.762 855.802
21589407.594 4556627.652 435.421
21589408.031 4556627.184 435.508
21589408.469 4556626.707 435.597
21589408.914 4556626.223 435.686
21589414.211 4556620.488 436.751
21589418.609 4556590.480 860.026
21589427.234 4556606.383 439.369
21589433.953 4556599.102 440.719
21589434.539 4556598.469 440.836
21589435.125 4556597.832 440.955
21589435.719 4556597.188 441.074
21589441.141 4556591.258 443.118
21589450.375 4556556.203 864.250
21589454.273 4556576.895 448.069
21589494.742 4556532.637 463.327
21589482.148 4556521.922 868.474
21589508.273 4556517.840 468.429
21589513.922 4556487.641 872.698
21589522.094 4556502.727 473.641
21589545.688 4556453.359 876.922
21589536.219 4556487.285 478.963
21589595.602 4556418.309 498.886
21589577.461 4556419.078 881.146
21589598.555 4556415.090 500.004
21589602.047 4556411.309 500.691
21589607.445 4556405.352 504.045
21589610.180 4556402.340 505.741
21589609.227 4556384.797 885.370
21589613.523 4556398.648 507.819
21589624.938 4556385.895 518.256
21589645.516 4556362.906 537.067
21589647.203 4556361.016 538.615
[...]
POINT_DATA 624
COLOR_SCALARS GocadColor 4
0.098039 0.8 0.87451 1
0.098039 0.8 0.87451 1
0.098039 0.8 0.87451 1
0.098039 0.8 0.87451 1
0.098039 0.8 0.87451 1
0.098039 0.8 0.87451 1
0.098039 0.8 0.87451 1
0.098039 0.8 0.87451 1
0.098039 0.8 0.87451 1
0.098039 0.8 0.87451 1
0.098039 0.8 0.87451 1
0.098039 0.8 0.87451 1
0.098039 0.8 0.87451 1
0.098039 0.8 0.87451 1
0.098039 0.8 0.87451 1
0.098039 0.8 0.87451 1
0.098039 0.8 0.87451 1
0.098039 0.8 0.87451 1
0.098039 0.8 0.87451 1
0.098039 0.8 0.87451 1
0.098039 0.8 0.87451 1
0.098039 0.8 0.87451 1
0.098039 0.8 0.87451 1
0.098039 0.8 0.87451 1
0.098039 0.8 0.87451 1
0.098039 0.8 0.87451 1
0.098039 0.8 0.87451 1
0.098039 0.8 0.87451 1
0.098039 0.8 0.87451 1
0.098039 0.8 0.87451 1
0.098039 0.8 0.87451 1
0.098039 0.8 0.87451 1
0.098039 0.8 0.87451 1
0.098039 0.8 0.87451 1
0.098039 0.8 0.87451 1
0.098039 0.8 0.87451 1
0.098039 0.8 0.87451 1
0.098039 0.8 0.87451 1
0.098039 0.8 0.87451 1
0.098039 0.8 0.87451 1
0.098039 0.8 0.87451 1
0.098039 0.8 0.87451 1
0.098039 0.8 0.87451 1
0.098039 0.8 0.87451 1
0.098039 0.8 0.87451 1
0.098039 0.8 0.87451 1
0.098039 0.8 0.87451 1
0.098039 0.8 0.87451 1
0.098039 0.8 0.87451 1
0.098039 0.8 0.87451 1
0.098039 0.8 0.87451 1
0.098039 0.8 0.87451 1
0.098039 0.8 0.87451 1
0.098039 0.8 0.87451 1
0.098039 0.8 0.87451 1
0.098039 0.8 0.87451 1
0.098039 0.8 0.87451 1
0.098039 0.8 0.87451 1
0.098039 0.8 0.87451 1
0.098039 0.8 0.87451 1
0.098039 0.8 0.87451 1
0.098039 0.8 0.87451 1
0.098039 0.8 0.87451 1
0.098039 0.8 0.87451 1
0.098039 0.8 0.87451 1
0.098039 0.8 0.87451 1
0.098039 0.8 0.87451 1
0.098039 0.8 0.87451 1
0.098039 0.8 0.87451 1
0.098039 0.8 0.87451 1
0.098039 0.8 0.87451 1
0.098039 0.8 0.87451 1
0.098039 0.8 0.87451 1
0.098039 0.8 0.87451 1
0.098039 0.8 0.87451 1
0.098039 0.8 0.87451 1
0.098039 0.8 0.87451 1
0.098039 0.8 0.87451 1
0.098039 0.8 0.87451 1
0.098039 0.8 0.87451 1
0.098039 0.8 0.87451 1
0.098039 0.8 0.87451 1
0.098039 0.8 0.87451 1
0.098039 0.8 0.87451 1
0.098039 0.8 0.87451 1
0.098039 0.8 0.87451 1
0.098039 0.8 0.87451 1
0.098039 0.8 0.87451 1
0.098039 0.8 0.87451 1
0.098039 0.8 0.87451 1
0.098039 0.8 0.87451 1
0.098039 0.8 0.87451 1
0.098039 0.8 0.87451 1
0.098039 0.8 0.87451 1
0.098039 0.8 0.87451 1
0.098039 0.8 0.87451 1
0.098039 0.8 0.87451 1
0.098039 0.8 0.87451 1
0.098039 0.8 0.87451 1
0.098039 0.8 0.87451 1
0.098039 0.8 0.87451 1
0.098039 0.8 0.87451 1
0.098039 0.8 0.87451 1
0.098039 0.8 0.87451 1
0.098039 0.8 0.87451 1
0.098039 0.8 0.87451 1
0.098039 0.8 0.87451 1
0.098039 0.8 0.87451 1
0.098039 0.8 0.87451 1
0.098039 0.8 0.87451 1
0.098039 0.8 0.87451 1
0.098039 0.8 0.87451 1
0.098039 0.8 0.87451 1
0.098039 0.8 0.87451 1
0.098039 0.8 0.87451 1
0.098039 0.8 0.87451 1
0.098039 0.8 0.87451 1
0.098039 0.8 0.87451 1
0.098039 0.8 0.87451 1
0.098039 0.8 0.87451 1
0.098039 0.8 0.87451 1
0.098039 0.8 0.87451 1
0.098039 0.8 0.87451 1
0.098039 0.8 0.87451 1
0.098039 0.8 0.87451 1
0.098039 0.8 0.87451 1
0.098039 0.8 0.87451 1
0.098039 0.8 0.87451 1
0.098039 0.8 0.87451 1
0.098039 0.8 0.87451 1
0.098039 0.8 0.87451 1
0.098039 0.8 0.87451 1
0.098039 0.8 0.87451 1
0.098039 0.8 0.87451 1
0.098039 0.8 0.87451 1
0.098039 0.8 0.87451 1
0.098039 0.8 0.87451 1
0.098039 0.8 0.87451 1
0.098039 0.8 0.87451 1
0.098039 0.8 0.87451 1
0.098039 0.8 0.87451 1
0.098039 0.8 0.87451 1
0.098039 0.8 0.87451 1
0.098039 0.8 0.87451 1
0.098039 0.8 0.87451 1
0.098039 0.8 0.87451 1
0.098039 0.8 0.87451 1
0.098039 0.8 0.87451 1
0.098039 0.8 0.87451 1
0.098039 0.8 0.87451 1
0.098039 0.8 0.87451 1
0.098039 0.8 0.87451 1
0.098039 0.8 0.87451 1
0.098039 0.8 0.87451 1
0.098039 0.8 0.87451 1
0.098039 0.8 0.87451 1
0.098039 0.8 0.87451 1
0.098039 0.8 0.87451 1
0.098039 0.8 0.87451 1
0.098039 0.8 0.87451 1
0.098039 0.8 0.87451 1
0.098039 0.8 0.87451 1
0.098039 0.8 0.87451 1
0.098039 0.8 0.87451 1
0.098039 0.8 0.87451 1
0.098039 0.8 0.87451 1
0.098039 0.8 0.87451 1
0.098039 0.8 0.87451 1
0.098039 0.8 0.87451 1
0.098039 0.8 0.87451 1
0.098039 0.8 0.87451 1
0.098039 0.8 0.87451 1
0.098039 0.8 0.87451 1
0.098039 0.8 0.87451 1
0.098039 0.8 0.87451 1
0.098039 0.8 0.87451 1
0.098039 0.8 0.87451 1
0.098039 0.8 0.87451 1
0.098039 0.8 0.87451 1
0.098039 0.8 0.87451 1
0.098039 0.8 0.87451 1
0.098039 0.8 0.87451 1
0.098039 0.8 0.87451 1
0.098039 0.8 0.87451 1
0.098039 0.8 0.87451 1
0.098039 0.8 0.87451 1
0.098039 0.8 0.87451 1
0.098039 0.8 0.87451 1
0.098039 0.8 0.87451 1
0.098039 0.8 0.87451 1
0.098039 0.8 0.87451 1
0.098039 0.8 0.87451 1
0.098039 0.8 0.87451 1
0.098039 0.8 0.87451 1
0.098039 0.8 0.87451 1
0.098039 0.8 0.87451 1
0.098039 0.8 0.87451 1
0.098039 0.8 0.87451 1
0.098039 0.8 0.87451 1
0.098039 0.8 0.87451 1
0.098039 0.8 0.87451 1
0.098039 0.8 0.87451 1
0.098039 0.8 0.87451 1
0.098039 0.8 0.87451 1
0.098039 0.8 0.87451 1
0.098039 0.8 0.87451 1
0.098039 0.8 0.87451 1
0.098039 0.8 0.87451 1
0.098039 0.8 0.87451 1
0.098039 0.8 0.87451 1
0.098039 0.8 0.87451 1
0.098039 0.8 0.87451 1
0.098039 0.8 0.87451 1
0.098039 0.8 0.87451 1
0.098039 0.8 0.87451 1
0.098039 0.8 0.87451 1
0.098039 0.8 0.87451 1
0.098039 0.8 0.87451 1
0.098039 0.8 0.87451 1
0.098039 0.8 0.87451 1
0.098039 0.8 0.87451 1
0.098039 0.8 0.87451 1
0.098039 0.8 0.87451 1
0.098039 0.8 0.87451 1
0.098039 0.8 0.87451 1
0.098039 0.8 0.87451 1
0.098039 0.8 0.87451 1
0.098039 0.8 0.87451 1
0.098039 0.8 0.87451 1
0.098039 0.8 0.87451 1
0.098039 0.8 0.87451 1
0.098039 0.8 0.87451 1
0.098039 0.8 0.87451 1
0.098039 0.8 0.87451 1
0.098039 0.8 0.87451 1
0.098039 0.8 0.87451 1
0.098039 0.8 0.87451 1
0.098039 0.8 0.87451 1
0.098039 0.8 0.87451 1
0.098039 0.8 0.87451 1
0.098039 0.8 0.87451 1
0.098039 0.8 0.87451 1
0.098039 0.8 0.87451 1
0.098039 0.8 0.87451 1
0.098039 0.8 0.87451 1
0.098039 0.8 0.87451 1
0.098039 0.8 0.87451 1
0.098039 0.8 0.87451 1
0.098039 0.8 0.87451 1
0.098039 0.8 0.87451 1
0.098039 0.8 0.87451 1
0.098039 0.8 0.87451 1
0.098039 0.8 0.87451 1
0.098039 0.8 0.87451 1
0.098039 0.8 0.87451 1
0.098039 0.8 0.87451 1
0.098039 0.8 0.87451 1
0.098039 0.8 0.87451 1
0.098039 0.8 0.87451 1
0.098039 0.8 0.87451 1
0.098039 0.8 0.87451 1
0.098039 0.8 0.87451 1
0.098039 0.8 0.87451 1
0.098039 0.8 0.87451 1
0.098039 0.8 0.87451 1
0.098039 0.8 0.87451 1
0.098039 0.8 0.87451 1
0.098039 0.8 0.87451 1
0.098039 0.8 0.87451 1
0.098039 0.8 0.87451 1
0.098039 0.8 0.87451 1
0.098039 0.8 0.87451 1
0.098039 0.8 0.87451 1
0.098039 0.8 0.87451 1
0.098039 0.8 0.87451 1
0.098039 0.8 0.87451 1
0.098039 0.8 0.87451 1
0.098039 0.8 0.87451 1
0.098039 0.8 0.87451 1
0.098039 0.8 0.87451 1
0.098039 0.8 0.87451 1
0.098039 0.8 0.87451 1
0.098039 0.8 0.87451 1
0.098039 0.8 0.87451 1
0.098039 0.8 0.87451 1
0.098039 0.8 0.87451 1
0.098039 0.8 0.87451 1
0.098039 0.8 0.87451 1
0.098039 0.8 0.87451 1
0.098039 0.8 0.87451 1
0.098039 0.8 0.87451 1
0.098039 0.8 0.87451 1
0.098039 0.8 0.87451 1
0.098039 0.8 0.87451 1
0.098039 0.8 0.87451 1
0.098039 0.8 0.87451 1
0.098039 0.8 0.87451 1
0.098039 0.8 0.87451 1
0.098039 0.8 0.87451 1
0.098039 0.8 0.87451 1
0.098039 0.8 0.87451 1
0.098039 0.8 0.87451 1
0.098039 0.8 0.87451 1
0.098039 0.8 0.87451 1
0.098039 0.8 0.87451 1
0.098039 0.8 0.87451 1
0.098039 0.8 0.87451 1
0.098039 0.8 0.87451 1
0.098039 0.8 0.87451 1
0.098039 0.8 0.87451 1
0.098039 0.8 0.87451 1
0.098039 0.8 0.87451 1
0.098039 0.8 0.87451 1
0.098039 0.8 0.87451 1
0.098039 0.8 0.87451 1
0.098039 0.8 0.87451 1
0.098039 0.8 0.87451 1
0.098039 0.8 0.87451 1
0.098039 0.8 0.87451 1
0.098039 0.8 0.87451 1
0.098039 0.8 0.87451 1
0.098039 0.8 0.87451 1
0.098039 0.8 0.87451 1
0.098039 0.8 0.87451 1
0.098039 0.8 0.87451 1
0.098039 0.8 0.87451 1
0.098039 0.8 0.87451 1
0.098039 0.8 0.87451 1
0.098039 0.8 0.87451 1
0.098039 0.8 0.87451 1
0.098039 0.8 0.87451 1
0.098039 0.8 0.87451 1
0.098039 0.8 0.87451 1
0.098039 0.8 0.87451 1
0.098039 0.8 0.87451 1
0.098039 0.8 0.87451 1
0.098039 0.8 0.87451 1
0.098039 0.8 0.87451 1
0.098039 0.8 0.87451 1
0.098039 0.8 0.87451 1
0.098039 0.8 0.87451 1
0.098039 0.8 0.87451 1
0.098039 0.8 0.87451 1
0.098039 0.8 0.87451 1
0.098039 0.8 0.87451 1
0.098039 0.8 0.87451 1
0.098039 0.8 0.87451 1
0.098039 0.8 0.87451 1
0.098039 0.8 0.87451 1
0.098039 0.8 0.87451 1
0.098039 0.8 0.87451 1
0.098039 0.8 0.87451 1
0.098039 0.8 0.87451 1
0.098039 0.8 0.87451 1
0.098039 0.8 0.87451 1
0.098039 0.8 0.87451 1
0.098039 0.8 0.87451 1
0.098039 0.8 0.87451 1
0.098039 0.8 0.87451 1
0.098039 0.8 0.87451 1
0.098039 0.8 0.87451 1
0.098039 0.8 0.87451 1
0.098039 0.8 0.87451 1
0.098039 0.8 0.87451 1
0.098039 0.8 0.87451 1
0.098039 0.8 0.87451 1
0.098039 0.8 0.87451 1
0.098039 0.8 0.87451 1
0.098039 0.8 0.87451 1
0.098039 0.8 0.87451 1
0.098039 0.8 0.87451 1
0.098039 0.8 0.87451 1
0.098039 0.8 0.87451 1
0.098039 0.8 0.87451 1
0.098039 0.8 0.87451 1
0.098039 0.8 0.87451 1
0.098039 0.8 0.87451 1
0.098039 0.8 0.87451 1
0.098039 0.8 0.87451 1
0.098039 0.8 0.87451 1
0.098039 0.8 0.87451 1
0.098039 0.8 0.87451 1
0.098039 0.8 0.87451 1
0.098039 0.8 0.87451 1
0.098039 0.8 0.87451 1
0.098039 0.8 0.87451 1
0.098039 0.8 0.87451 1
0.098039 0.8 0.87451 1
0.098039 0.8 0.87451 1
0.098039 0.8 0.87451 1
0.098039 0.8 0.87451 1
0.098039 0.8 0.87451 1
0.098039 0.8 0.87451 1
0.098039 0.8 0.87451 1
0.098039 0.8 0.87451 1
0.098039 0.8 0.87451 1
0.098039 0.8 0.87451 1
0.098039 0.8 0.87451 1
0.098039 0.8 0.87451 1
0.098039 0.8 0.87451 1
0.098039 0.8 0.87451 1
0.098039 0.8 0.87451 1
0.098039 0.8 0.87451 1
0.098039 0.8 0.87451 1
0.098039 0.8 0.87451 1
0.098039 0.8 0.87451 1
0.098039 0.8 0.87451 1
0.098039 0.8 0.87451 1
0.098039 0.8 0.87451 1
0.098039 0.8 0.87451 1
0.098039 0.8 0.87451 1
0.098039 0.8 0.87451 1
0.098039 0.8 0.87451 1
0.098039 0.8 0.87451 1
0.098039 0.8 0.87451 1
0.098039 0.8 0.87451 1
0.098039 0.8 0.87451 1
0.098039 0.8 0.87451 1
0.098039 0.8 0.87451 1
0.098039 0.8 0.87451 1
0.098039 0.8 0.87451 1
0.098039 0.8 0.87451 1
0.098039 0.8 0.87451 1
0.098039 0.8 0.87451 1
0.098039 0.8 0.87451 1
0.098039 0.8 0.87451 1
0.098039 0.8 0.87451 1
0.098039 0.8 0.87451 1
0.098039 0.8 0.87451 1
0.098039 0.8 0.87451 1
0.098039 0.8 0.87451 1
0.098039 0.8 0.87451 1
0.098039 0.8 0.87451 1
0.098039 0.8 0.87451 1
0.098039 0.8 0.87451 1
0.098039 0.8 0.87451 1
0.098039 0.8 0.87451 1
0.098039 0.8 0.87451 1
0.098039 0.8 0.87451 1
0.098039 0.8 0.87451 1
0.098039 0.8 0.87451 1
0.098039 0.8 0.87451 1
0.098039 0.8 0.87451 1
0.098039 0.8 0.87451 1
0.098039 0.8 0.87451 1
0.098039 0.8 0.87451 1
0.098039 0.8 0.87451 1
0.098039 0.8 0.87451 1
0.098039 0.8 0.87451 1
0.098039 0.8 0.87451 1
0.098039 0.8 0.87451 1
0.098039 0.8 0.87451 1
0.098039 0.8 0.87451 1
0.098039 0.8 0.87451 1
0.098039 0.8 0.87451 1
0.098039 0.8 0.87451 1
0.098039 0.8 0.87451 1
0.098039 0.8 0.87451 1
0.098039 0.8 0.87451 1
0.098039 0.8 0.87451 1
0.098039 0.8 0.87451 1
0.098039 0.8 0.87451 1
0.098039 0.8 0.87451 1
0.098039 0.8 0.87451 1
0.098039 0.8 0.87451 1
0.098039 0.8 0.87451 1
0.098039 0.8 0.87451 1
0.098039 0.8 0.87451 1
0.098039 0.8 0.87451 1
0.098039 0.8 0.87451 1
0.098039 0.8 0.87451 1
0.098039 0.8 0.87451 1
0.098039 0.8 0.87451 1
0.098039 0.8 0.87451 1
0.098039 0.8 0.87451 1
0.098039 0.8 0.87451 1
0.098039 0.8 0.87451 1
0.098039 0.8 0.87451 1
0.098039 0.8 0.87451 1
0.098039 0.8 0.87451 1
0.098039 0.8 0.87451 1
0.098039 0.8 0.87451 1
0.098039 0.8 0.87451 1
0.098039 0.8 0.87451 1
0.098039 0.8 0.87451 1
0.098039 0.8 0.87451 1
0.098039 0.8 0.87451 1
0.098039 0.8 0.87451 1
0.098039 0.8 0.87451 1
0.098039 0.8 0.87451 1
0.098039 0.8 0.87451 1
0.098039 0.8 0.87451 1
0.098039 0.8 0.87451 1
0.098039 0.8 0.87451 1
0.098039 0.8 0.87451 1
0.098039 0.8 0.87451 1
0.098039 0.8 0.87451 1
0.098039 0.8 0.87451 1
0.098039 0.8 0.87451 1
0.098039 0.8 0.87451 1
0.098039 0.8 0.87451 1
0.098039 0.8 0.87451 1
0.098039 0.8 0.87451 1
0.098039 0.8 0.87451 1
0.098039 0.8 0.87451 1
0.098039 0.8 0.87451 1
0.098039 0.8 0.87451 1
0.098039 0.8 0.87451 1
0.098039 0.8 0.87451 1
0.098039 0.8 0.87451 1
0.098039 0.8 0.87451 1
0.098039 0.8 0.87451 1
0.098039 0.8 0.87451 1
0.098039 0.8 0.87451 1
0.098039 0.8 0.87451 1
0.098039 0.8 0.87451 1
0.098039 0.8 0.87451 1
0.098039 0.8 0.87451 1
0.098039 0.8 0.87451 1
0.098039 0.8 0.87451 1
0.098039 0.8 0.87451 1
0.098039 0.8 0.87451 1
0.098039 0.8 0.87451 1
0.098039 0.8 0.87451 1
0.098039 0.8 0.87451 1
0.098039 0.8 0.87451 1
0.098039 0.8 0.87451 1
0.098039 0.8 0.87451 1
0.098039 0.8 0.87451 1
0.098039 0.8 0.87451 1
0.098039 0.8 0.87451 1
0.098039 0.8 0.87451 1
0.098039 0.8 0.87451 1
0.098039 0.8 0.87451 1
0.098039 0.8 0.87451 1
0.098039 0.8 0.87451 1
0.098039 0.8 0.87451 1
0.098039 0.8 0.87451 1
0.098039 0.8 0.87451 1
0.098039 0.8 0.87451 1
0.098039 0.8 0.87451 1
0.098039 0.8 0.87451 1
0.098039 0.8 0.87451 1
0.098039 0.8 0.87451 1
0.098039 0.8 0.87451 1
0.098039 0.8 0.87451 1
0.098039 0.8 0.87451 1
0.098039 0.8 0.87451 1
0.098039 0.8 0.87451 1
0.098039 0.8 0.87451 1
0.098039 0.8 0.87451 1
0.098039 0.8 0.87451 1
0.098039 0.8 0.87451 1
0.098039 0.8 0.87451 1
0.098039 0.8 0.87451 1
0.098039 0.8 0.87451 1
0.098039 0.8 0.87451 1
0.098039 0.8 0.87451 1
0.098039 0.8 0.87451 1
0.098039 0.8 0.87451 1
0.098039 0.8 0.87451 1
0.098039 0.8 0.87451 1
0.098039 0.8 0.87451 1
0.098039 0.8 0.87451 1
0.098039 0.8 0.87451 1
0.098039 0.8 0.87451 1
0.098039 0.8 0.87451 1
0.098039 0.8 0.87451 1
0.098039 0.8 0.87451 1
0.098039 0.8 0.87451 1
0.098039 0.8 0.87451 1
0.098039 0.8 0.87451 1
0.098039 0.8 0.87451 1
0.098039 0.8 0.87451 1
0.098039 0.8 0.87451 1
0.098039 0.8 0.87451 1
0.098039 0.8 0.87451 1
0.098039 0.8 0.87451 1
0.098039 0.8 0.87451 1
0.098039 0.8 0.87451 1
0.098039 0.8 0.87451 1
0.098039 0.8 0.87451 1
0.098039 0.8 0.87451 1
0.098039 0.8 0.87451 1
0.098039 0.8 0.87451 1
0.098039 0.8 0.87451 1
0.098039 0.8 0.87451 1
0.098039 0.8 0.87451 1
0.098039 0.8 0.87451 1
0.098039 0.8 0.87451 1
0.098039 0.8 0.87451 1
0.098039 0.8 0.87451 1
0.098039 0.8 0.87451 1
0.098039 0.8 0.87451 1
0.098039 0.8 0.87451 1
0.098039 0.8 0.87451 1
0.098039 0.8 0.87451 1
0.098039 0.8 0.87451 1
0.098039 0.8 0.87451 1
0.098039 0.8 0.87451 1
0.098039 0.8 0.87451 1
0.098039 0.8 0.87451 1
0.098039 0.8 0.87451 1
0.098039 0.8 0.87451 1
0.098039 0.8 0.87451 1
0.098039 0.8 0.87451 1
0.098039 0.8 0.87451 1
0.098039 0.8 0.87451 1
0.098039 0.8 0.87451 1
0.098039 0.8 0.87451 1
0.098039 0.8 0.87451 1
0.098039 0.8 0.87451 1
0.098039 0.8 0.87451 1
0.098039 0.8 0.87451 1
0.098039 0.8 0.87451 1
0.098039 0.8 0.87451 1
0.098039 0.8 0.87451 1
0.098039 0.8 0.87451 1
0.098039 0.8 0.87451 1
0.098039 0.8 0.87451 1
0.098039 0.8 0.87451 1
0.098039 0.8 0.87451 1
0.098039 0.8 0.87451 1
0.098039 0.8 0.87451 1

