# vtk DataFile Version 3.0
Gocad TSurf to VTK
ASCII
DATASET POLYDATA
POINTS 10245 float
21590064.547 4556309.309 922.761
21589441.141 4556591.258 443.118
21589435.719 4556597.188 441.074
21590033.648 4556344.957 918.525
21589454.273 4556576.895 448.069
21589494.742 4556532.637 463.327
21589508.273 4556517.840 468.429
21589522.094 4556502.727 473.641
21589530.344 4556493.703 476.751
21589536.219 4556487.285 478.963
21589595.602 4556418.309 498.886
21589598.555 4556415.090 500.004
21589602.047 4556411.309 500.691
21590095.445 4556273.660 926.998
21589607.445 4556405.352 504.045
21590113.641 4556228.328 930.847
21589609.102 4556403.527 505.071
21589610.180 4556402.340 505.741
21589612.258 4556400.043 507.033
21589613.523 4556398.648 507.819
21590131.828 4556182.992 934.697
21589624.938 4556385.895 518.256
21589628.352 4556382.078 521.378
21589645.516 4556362.906 537.067
21589646.859 4556361.402 538.299
21589647.203 4556361.016 538.615
21589654.828 4556352.500 545.585
21590128.156 4556148.234 936.364
21589657.836 4556349.141 548.336
21589662.852 4556343.539 552.919
21589664.055 4556340.895 554.188
21590124.477 4556113.480 938.030
21589669.109 4556329.488 562.097
21590105.164 4556083.594 938.286
21589673.078 4556320.605 567.691
21589684.000 4556296.148 583.091
21589700.703 4556258.758 606.639
21589704.773 4556249.637 612.383
21589705.586 4556247.805 613.673
21589707.227 4556244.105 616.281
21589708.969 4556240.156 619.062
21589711.977 4556233.359 623.850
21590085.852 4556053.707 938.542
21589718.422 4556218.809 634.102
21589720.297 4556214.566 637.091
21590066.539 4556023.820 938.798
21589729.195 4556193.699 657.897
21590029.023 4556006.680 937.017
21589730.180 4556191.406 660.184
21589736.508 4556182.250 670.336
21589747.109 4556166.918 687.331
21589749.531 4556160.852 693.310
21589991.508 4555989.539 935.237
21589778.961 4556114.617 741.732
21589758.828 4556137.879 714.865
21589801.039 4556089.121 771.183
21589805.203 4556084.316 776.736
21589820.469 4556066.684 797.103
21589828.813 4556057.051 808.229
21589854.805 4556027.027 842.908
21589863.000 4556006.430 862.168
21589870.211 4555999.465 870.767
21589878.938 4555991.039 881.175
21589888.594 4555981.832 894.170
21589890.359 4555980.152 896.544
21589953.992 4555972.402 933.456
21589896.602 4555974.207 904.935
21589916.477 4555955.262 931.676
21589758.805 4556137.902 714.836
21589435.125 4556597.832 440.955
21590002.750 4556380.605 914.288
21589434.766 4556598.227 440.881
21589434.539 4556598.469 440.836
21589971.852 4556416.254 910.051
21589434.313 4556598.715 440.791
21589433.953 4556599.102 440.719
21589431.125 4556602.164 440.151
21589427.234 4556606.383 439.369
21589414.211 4556620.488 436.751
21589408.914 4556626.223 435.686
21589940.953 4556451.902 905.815
21589408.469 4556626.707 435.597
21589910.055 4556487.551 901.578
21589408.031 4556627.184 435.508
21589879.156 4556523.199 897.342
21589407.594 4556627.652 435.421
21589406.680 4556628.656 434.963
21589401.461 4556634.398 432.340
21589392.578 4556644.184 427.874
21589320.797 4556767.500 415.778
21589389.234 4556647.863 426.216
21589863.930 4556560.977 894.129
21589848.703 4556598.758 890.916
21589833.484 4556636.535 887.704
21589309.383 4556795.832 413.368
21589260.586 4556792.570 362.976
21589818.258 4556674.313 884.491
21589808.063 4556722.266 881.079
21589797.867 4556770.215 877.667
21589787.672 4556818.168 870.422
21589271.148 4556975.648 391.007
21589172.141 4556924.141 293.899
21589777.477 4556866.117 862.550
21589767.281 4556914.070 854.677
21589255.859 4557047.578 379.199
21589107.391 4557018.398 238.761
21589757.086 4556962.020 846.804
21589746.898 4557009.973 838.932
21589736.703 4557057.926 831.058
21589240.570 4557119.504 367.389
21589054.594 4557091.297 191.762
21589726.508 4557105.875 823.186
21589716.313 4557153.828 815.313
21589217.625 4557227.395 349.675
21588990.102 4557162.258 133.722
21589706.117 4557201.777 807.440
21589695.922 4557249.730 799.567
21589209.984 4557263.359 343.771
21588942.508 4557214.551 90.891
21589685.727 4557297.680 791.694
21589675.531 4557345.633 783.821
21589674.844 4557379.250 778.799
21589201.313 4557349.750 330.333
21588929.531 4557228.621 79.202
21589674.164 4557412.871 773.777
21589673.477 4557446.488 768.755
21589200.797 4557374.965 326.566
21588805.125 4557363.344 -65.299
21589686.086 4557487.754 763.626
21589698.703 4557529.020 758.498
21589711.313 4557570.285 753.369
21589723.930 4557611.551 748.781
21589253.758 4557560.828 305.431
21588802.063 4557366.504 -68.757
21589736.539 4557652.816 744.649
21589744.094 4557694.309 740.575
21589751.641 4557735.805 736.500
21589259.422 4557591.953 302.375
21588778.523 4557510.336 -137.863
21589759.195 4557777.297 732.425
21589766.750 4557818.789 728.350
21589270.750 4557654.188 296.262
21589774.297 4557860.285 724.275
21589781.852 4557901.777 720.200
21589294.523 4557771.363 284.718
21588782.297 4557531.086 -139.900
21589790.148 4557938.398 716.579
21589798.445 4557975.020 712.957
21589806.742 4558011.641 709.336
21589312.164 4557828.461 278.999
21589821.969 4558051.148 705.332
21589837.195 4558090.660 701.328
21589323.586 4557858.094 275.996
21588825.203 4557665.031 -148.073
21589852.430 4558130.168 702.194
21589867.656 4558169.676 703.853
21589357.852 4557946.988 279.134
21589882.883 4558209.188 705.512
21589898.109 4558248.695 707.171
21589899.273 4558201.758 705.102
21589900.438 4558154.816 703.033
21589371.891 4557871.008 275.723
21589901.602 4558107.879 700.964
21589902.766 4558060.938 703.153
21589373.633 4557800.598 280.709
21589903.930 4558014.000 707.613
21589905.094 4557967.059 712.073
21589374.508 4557765.391 284.055
21588843.344 4557587.195 -146.194
21589906.258 4557920.121 716.669
21589399.789 4557757.641 285.324
21589938.805 4557956.727 713.765
21588893.328 4557595.160 -146.021
21589448.617 4557812.547 280.968
21588653.617 4557515.086 -299.242
21588652.758 4557515.840 -299.898
21588660.070 4557510.938 -318.053
21589021.219 4557711.652 -147.307
21588636.414 4557534.520 -379.180
21589528.836 4557889.094 278.909
21589640.461 4557987.281 279.039
21589416.469 4558360.992 -147.307
21590185.281 4558197.453 705.299
21590222.484 4558230.184 705.342
21590148.078 4558164.727 705.256
21590110.867 4558131.996 705.212
21590073.656 4558099.266 705.169
21590036.453 4558066.535 705.520
21590003.906 4558029.930 707.957
21589971.359 4557993.328 710.861
21590259.695 4558262.914 705.385
21589865.992 4558336.500 279.072
21590296.906 4558295.645 705.429
21590334.109 4558328.375 705.472
21589920.234 4558378.945 279.709
21590369.234 4558352.238 706.279
21590404.359 4558376.105 707.086
21589946.578 4558396.848 280.315
21589523.922 4558441.453 -145.650
21590439.477 4558399.969 707.893
21590474.602 4558423.836 708.700
21590509.727 4558447.699 709.507
21590549.836 4558465.879 711.417
21590055.688 4558464.176 283.563
21590589.945 4558484.055 713.328
21590630.055 4558502.234 715.238
21590670.164 4558520.410 717.148
21590145.938 4558505.074 287.861
21590710.273 4558538.590 719.059
21590758.570 4558547.598 722.762
21590806.867 4558556.609 726.465
21590284.688 4558538.980 297.627
21589786.656 4558525.859 -129.360
21590855.164 4558565.617 730.169
21590903.469 4558574.629 733.873
21590951.766 4558583.637 737.577
21590465.805 4558572.770 311.515
21591000.063 4558592.648 741.280
21591048.359 4558601.656 744.984
21591096.656 4558610.668 748.687
21591144.953 4558619.676 752.391
21590502.031 4558579.523 314.293
21591193.250 4558628.688 752.346
21591241.555 4558637.695 751.539
21590683.148 4558613.309 311.838
21590052.297 4558575.414 -126.652
21591289.852 4558646.703 750.732
21591338.148 4558655.715 749.924
21591386.445 4558664.723 749.117
21591434.742 4558673.734 748.310
21590719.367 4558620.070 311.232
21591483.039 4558682.742 747.503
21591531.344 4558691.754 746.695
21591579.641 4558700.762 745.888
21590864.266 4558647.098 308.810
21591627.938 4558709.773 745.081
21591676.234 4558718.781 744.274
21590952.047 4558661.418 307.655
21590159.109 4558593.969 -128.230
21591710.609 4558723.824 743.907
21591744.977 4558728.867 743.540
21591781.305 4558752.102 740.437
21590979.289 4558678.844 305.328
21591817.625 4558775.340 737.333
21591853.953 4558798.574 734.231
21591886.664 4558826.465 728.337
21591058.313 4558734.617 296.253
21591919.383 4558854.359 721.578
21591952.094 4558882.250 714.821
21591156.453 4558818.293 275.978
21590328.430 4558730.320 -156.570
21591984.805 4558910.141 708.063
21592017.523 4558938.035 701.304
21592050.234 4558965.926 694.547
21591206.016 4558865.941 265.146
21592083.609 4559001.566 686.861
21592116.992 4559037.203 679.174
21591231.055 4558892.672 259.381
21592150.367 4559072.844 671.488
21592183.750 4559108.484 663.801
21591306.156 4558972.859 242.086
21590428.563 4558837.234 -179.629
21592217.125 4559144.125 656.115
21592250.508 4559179.762 648.428
21591381.266 4559053.051 228.229
21592283.883 4559215.402 640.742
21592317.266 4559251.043 637.638
21591981.859 4559473.527 223.809
21591563.000 4559606.914 -182.654
21592350.641 4559286.684 634.692
21592384.023 4559322.320 631.746
21592417.398 4559357.961 628.800
21592006.891 4559500.258 221.600
21591629.758 4559678.195 -188.546
21592450.781 4559393.602 625.853
21592484.156 4559429.242 622.907
21592107.023 4559607.176 212.761
21592517.539 4559464.879 619.961
21592550.914 4559500.520 617.015
21592579.375 4559537.652 614.142
21592171.078 4559690.727 205.316
21592607.844 4559574.789 610.637
21592636.313 4559611.922 607.088
21592664.773 4559649.055 603.539
21592693.234 4559686.188 599.990
21592235.117 4559774.281 197.330
21592721.703 4559723.324 596.440
21592750.172 4559760.457 592.891
21592299.156 4559857.832 189.345
21591805.461 4559899.504 -208.878
21592778.633 4559797.590 589.342
21592807.094 4559834.727 585.793
21592835.563 4559871.859 582.244
21592347.609 4559911.219 184.022
21592871.695 4559905.906 578.697
21592907.836 4559939.953 575.149
21592943.969 4559973.996 571.602
21592401.813 4559962.285 178.702
21591950.000 4560035.688 -223.067
[...]
POINT_DATA 10245
COLOR_SCALARS GocadColor 4
0.854902 0.666667 0 1
0.854902 0.666667 0 1
0.854902 0.666667 0 1
0.854902 0.666667 0 1
0.854902 0.666667 0 1
0.854902 0.666667 0 1
0.854902 0.666667 0 1
0.854902 0.666667 0 1
0.854902 0.666667 0 1
0.854902 0.666667 0 1
0.854902 0.666667 0 1
0.854902 0.666667 0 1
0.854902 0.666667 0 1
0.854902 0.666667 0 1
0.854902 0.666667 0 1
0.854902 0.666667 0 1
0.854902 0.666667 0 1
0.854902 0.666667 0 1
0.854902 0.666667 0 1
0.854902 0.666667 0 1
0.854902 0.666667 0 1
0.854902 0.666667 0 1
0.854902 0.666667 0 1
0.854902 0.666667 0 1
0.854902 0.666667 0 1
0.854902 0.666667 0 1
0.854902 0.666667 0 1
0.854902 0.666667 0 1
0.854902 0.666667 0 1
0.854902 0.666667 0 1
0.854902 0.666667 0 1
0.854902 0.666667 0 1
0.854902 0.666667 0 1
0.854902 0.666667 0 1
0.854902 0.666667 0 1
0.854902 0.666667 0 1
0.854902 0.666667 0 1
0.854902 0.666667 0 1
0.854902 0.666667 0 1
0.854902 0.666667 0 1
0.854902 0.666667 0 1
0.854902 0.666667 0 1
0.854902 0.666667 0 1
0.854902 0.666667 0 1
0.854902 0.666667 0 1
0.854902 0.666667 0 1
0.854902 0.666667 0 1
0.854902 0.666667 0 1
0.854902 0.666667 0 1
0.854902 0.666667 0 1
0.854902 0.666667 0 1
0.854902 0.666667 0 1
0.854902 0.666667 0 1
0.854902 0.666667 0 1
0.854902 0.666667 0 1
0.854902 0.666667 0 1
0.854902 0.666667 0 1
0.854902 0.666667 0 1
0.854902 0.666667 0 1
0.854902 0.666667 0 1
0.854902 0.666667 0 1
0.854902 0.666667 0 1
0.854902 0.666667 0 1
0.854902 0.666667 0 1
0.854902 0.666667 0 1
0.854902 0.666667 0 1
0.854902 0.666667 0 1
0.854902 0.666667 0 1
0.854902 0.666667 0 1
0.854902 0.666667 0 1
0.854902 0.666667 0 1
0.854902 0.666667 0 1
0.854902 0.666667 0 1
0.854902 0.666667 0 1
0.854902 0.666667 0 1
0.854902 0.666667 0 1
0.854902 0.666667 0 1
0.854902 0.666667 0 1
0.854902 0.666667 0 1
0.854902 0.666667 0 1
0.854902 0.666667 0 1
0.854902 0.666667 0 1
0.854902 0.666667 0 1
0.854902 0.666667 0 1
0.854902 0.666667 0 1
0.854902 0.666667 0 1
0.854902 0.666667 0 1
0.854902 0.666667 0 1
0.854902 0.666667 0 1
0.854902 0.666667 0 1
0.854902 0.666667 0 1
0.854902 0.666667 0 1
0.854902 0.666667 0 1
0.854902 0.666667 0 1
0.854902 0.666667 0 1
0.854902 0.666667 0 1
0.854902 0.666667 0 1
0.854902 0.666667 0 1
0.854902 0.666667 0 1
0.854902 0.666667 0 1
0.854902 0.666667 0 1
0.854902 0.666667 0 1
0.854902 0.666667 0 1
0.854902 0.666667 0 1
0.854902 0.666667 0 1
0.854902 0.666667 0 1
0.854902 0.666667 0 1
0.854902 0.666667 0 1
0.854902 0.666667 0 1
0.854902 0.666667 0 1
0.854902 0.666667 0 1
0.854902 0.666667 0 1
0.854902 0.666667 0 1
0.854902 0.666667 0 1
0.854902 0.666667 0 1
0.854902 0.666667 0 1
0.854902 0.666667 0 1
0.854902 0.666667 0 1
0.854902 0.666667 0 1
0.854902 0.666667 0 1
0.854902 0.666667 0 1
0.854902 0.666667 0 1
0.854902 0.666667 0 1
0.854902 0.666667 0 1
0.854902 0.666667 0 1
0.854902 0.666667 0 1
0.854902 0.666667 0 1
0.854902 0.666667 0 1
0.854902 0.666667 0 1
0.854902 0.666667 0 1
0.854902 0.666667 0 1
0.854902 0.666667 0 1
0.854902 0.666667 0 1
0.854902 0.666667 0 1
0.854902 0.666667 0 1
0.854902 0.666667 0 1
0.854902 0.666667 0 1
0.854902 0.666667 0 1
0.854902 0.666667 0 1
0.854902 0.666667 0 1
0.854902 0.666667 0 1
0.854902 0.666667 0 1
0.854902 0.666667 0 1
0.854902 0.666667 0 1
0.854902 0.666667 0 1
0.854902 0.666667 0 1
0.854902 0.666667 0 1
0.854902 0.666667 0 1
0.854902 0.666667 0 1
0.854902 0.666667 0 1
0.854902 0.666667 0 1
0.854902 0.666667 0 1
0.854902 0.666667 0 1
0.854902 0.666667 0 1
0.854902 0.666667 0 1
0.854902 0.666667 0 1
0.854902 0.666667 0 1
0.854902 0.666667 0 1
0.854902 0.666667 0 1
0.854902 0.666667 0 1
0.854902 0.666667 0 1
0.854902 0.666667 0 1
0.854902 0.666667 0 1
0.854902 0.666667 0 1
0.854902 0.666667 0 1
0.854902 0.666667 0 1
0.854902 0.666667 0 1
0.854902 0.666667 0 1
0.854902 0.666667 0 1
0.854902 0.666667 0 1
0.854902 0.666667 0 1
0.854902 0.666667 0 1
0.854902 0.666667 0 1
0.854902 0.666667 0 1
0.854902 0.666667 0 1
0.854902 0.666667 0 1
0.854902 0.666667 0 1
0.854902 0.666667 0 1
0.854902 0.666667 0 1
0.854902 0.666667 0 1
0.854902 0.666667 0 1
0.854902 0.666667 0 1
0.854902 0.666667 0 1
0.854902 0.666667 0 1
0.854902 0.666667 0 1
0.854902 0.666667 0 1
0.854902 0.666667 0 1
0.854902 0.666667 0 1
0.854902 0.666667 0 1
0.854902 0.666667 0 1
0.854902 0.666667 0 1
0.854902 0.666667 0 1
0.854902 0.666667 0 1
0.854902 0.666667 0 1
0.854902 0.666667 0 1
0.854902 0.666667 0 1
0.854902 0.666667 0 1
0.854902 0.666667 0 1
0.854902 0.666667 0 1
0.854902 0.666667 0 1
0.854902 0.666667 0 1
0.854902 0.666667 0 1
0.854902 0.666667 0 1
0.854902 0.666667 0 1
0.854902 0.666667 0 1
0.854902 0.666667 0 1
0.854902 0.666667 0 1
0.854902 0.666667 0 1
0.854902 0.666667 0 1
0.854902 0.666667 0 1
0.854902 0.666667 0 1
0.854902 0.666667 0 1
0.854902 0.666667 0 1
0.854902 0.666667 0 1
0.854902 0.666667 0 1
0.854902 0.666667 0 1
0.854902 0.666667 0 1
0.854902 0.666667 0 1
0.854902 0.666667 0 1
0.854902 0.666667 0 1
0.854902 0.666667 0 1
0.854902 0.666667 0 1
0.854902 0.666667 0 1
0.854902 0.666667 0 1
0.854902 0.666667 0 1
0.854902 0.666667 0 1
0.854902 0.666667 0 1
0.854902 0.666667 0 1
0.854902 0.666667 0 1
0.854902 0.666667 0 1
0.854902 0.666667 0 1
0.854902 0.666667 0 1
0.854902 0.666667 0 1
0.854902 0.666667 0 1
0.854902 0.666667 0 1
0.854902 0.666667 0 1
0.854902 0.666667 0 1
0.854902 0.666667 0 1
0.854902 0.666667 0 1
0.854902 0.666667 0 1
0.854902 0.666667 0 1
0.854902 0.666667 0 1
0.854902 0.666667 0 1
0.854902 0.666667 0 1
0.854902 0.666667 0 1
0.854902 0.666667 0 1
0.854902 0.666667 0 1
0.854902 0.666667 0 1
0.854902 0.666667 0 1
0.854902 0.666667 0 1
0.854902 0.666667 0 1
0.854902 0.666667 0 1
0.854902 0.666667 0 1
0.854902 0.666667 0 1
0.854902 0.666667 0 1
0.854902 0.666667 0 1
0.854902 0.666667 0 1
0.854902 0.666667 0 1
0.854902 0.666667 0 1
0.854902 0.666667 0 1
0.854902 0.666667 0 1
0.854902 0.666667 0 1
0.854902 0.666667 0 1
0.854902 0.666667 0 1
0.854902 0.666667 0 1
0.854902 0.666667 0 1
0.854902 0.666667 0 1
0.854902 0.666667 0 1
0.854902 0.666667 0 1
0.854902 0.666667 0 1
0.854902 0.666667 0 1
0.854902 0.666667 0 1
0.854902 0.666667 0 1
0.854902 0.666667 0 1
0.854902 0.666667 0 1
0.854902 0.666667 0 1
0.854902 0.666667 0 1
0.854902 0.666667 0 1
0.854902 0.666667 0 1
0.854902 0.666667 0 1
0.854902 0.666667 0 1
0.854902 0.666667 0 1
0.854902 0.666667 0 1
0.854902 0.666667 0 1
0.854902 0.666667 0 1
0.854902 0.666667 0 1
0.854902 0.666667 0 1
0.854902 0.666667 0 1
0.854902 0.666667 0 1
0.854902 0.666667 0 1
0.854902 0.666667 0 1
0.854902 0.666667 0 1
0.854902 0.666667 0 1
0.854902 0.666667 0 1
0.854902 0.666667 0 1
0.854902 0.666667 0 1
0.854902 0.666667 0 1
0.854902 0.666667 0 1
0.854902 0.666667 0 1
0.854902 0.666667 0 1
0.854902 0.666667 0 1
0.854902 0.666667 0 1
0.854902 0.666667 0 1
0.854902 0.666667 0 1
0.854902 0.666667 0 1
0.854902 0.666667 0 1
0.854902 0.666667 0 1
0.854902 0.666667 0 1
0.854902 0.666667 0 1
0.854902 0.666667 0 1
0.854902 0.666667 0 1
0.854902 0.666667 0 1
0.854902 0.666667 0 1
0.854902 0.666667 0 1
0.854902 0.666667 0 1
0.854902 0.666667 0 1
0.854902 0.666667 0 1
0.854902 0.666667 0 1
0.854902 0.666667 0 1
0.854902 0.666667 0 1
0.854902 0.666667 0 1
0.854902 0.666667 0 1
0.854902 0.666667 0 1
0.854902 0.666667 0 1
0.854902 0.666667 0 1
0.854902 0.666667 0 1
0.854902 0.666667 0 1
0.854902 0.666667 0 1
0.854902 0.666667 0 1
0.854902 0.666667 0 1
0.854902 0.666667 0 1
0.854902 0.666667 0 1
0.854902 0.666667 0 1
0.854902 0.666667 0 1
0.854902 0.666667 0 1
0.854902 0.666667 0 1
0.854902 0.666667 0 1
0.854902 0.666667 0 1
0.854902 0.666667 0 1
0.854902 0.666667 0 1
0.854902 0.666667 0 1
0.854902 0.666667 0 1
0.854902 0.666667 0 1
0.854902 0.666667 0 1
0.854902 0.666667 0 1
0.854902 0.666667 0 1
0.854902 0.666667 0 1
0.854902 0.666667 0 1
0.854902 0.666667 0 1
0.854902 0.666667 0 1
0.854902 0.666667 0 1
0.854902 0.666667 0 1
0.854902 0.666667 0 1
0.854902 0.666667 0 1
0.854902 0.666667 0 1
0.854902 0.666667 0 1
0.854902 0.666667 0 1
0.854902 0.666667 0 1
0.854902 0.666667 0 1
0.854902 0.666667 0 1
0.854902 0.666667 0 1
0.854902 0.666667 0 1
0.854902 0.666667 0 1
0.854902 0.666667 0 1
0.854902 0.666667 0 1
0.854902 0.666667 0 1
0.854902 0.666667 0 1
0.854902 0.666667 0 1
0.854902 0.666667 0 1
0.854902 0.666667 0 1
0.854902 0.666667 0 1
0.854902 0.666667 0 1
0.854902 0.666667 0 1
0.854902 0.666667 0 1
0.854902 0.666667 0 1
0.854902 0.666667 0 1
0.854902 0.666667 0 1
0.854902 0.666667 0 1
0.854902 0.666667 0 1
0.854902 0.666667 0 1
0.854902 0.666667 0 1
0.854902 0.666667 0 1
0.854902 0.666667 0 1
0.854902 0.666667 0 1
0.854902 0.666667 0 1
0.854902 0.666667 0 1
0.854902 0.666667 0 1
0.854902 0.666667 0 1
0.854902 0.666667 0 1
0.854902 0.666667 0 1
0.854902 0.666667 0 1
0.854902 0.666667 0 1
0.854902 0.666667 0 1
0.854902 0.666667 0 1
0.854902 0.666667 0 1
0.854902 0.666667 0 1
0.854902 0.666667 0 1
0.854902 0.666667 0 1
0.854902 0.666667 0 1
0.854902 0.666667 0 1
0.854902 0.666667 0 1
0.854902 0.666667 0 1
0.854902 0.666667 0 1
0.854902 0.666667 0 1
0.854902 0.666667 0 1
0.854902 0.666667 0 1
0.854902 0.666667 0 1
0.854902 0.666667 0 1
0.854902 0.666667 0 1
0.854902 0.666667 0 1
0.854902 0.666667 0 1
0.854902 0.666667 0 1
0.854902 0.666667 0 1
0.854902 0.666667 0 1
0.854902 0.666667 0 1
0.854902 0.666667 0 1
0.854902 0.666667 0 1
0.854902 0.666667 0 1
0.854902 0.666667 0 1
0.854902 0.666667 0 1
0.854902 0.666667 0 1
0.854902 0.666667 0 1
0.854902 0.666667 0 1
0.854902 0.666667 0 1
0.854902 0.666667 0 1
0.854902 0.666667 0 1
0.854902 0.666667 0 1
0.854902 0.666667 0 1
0.854902 0.666667 0 1
0.854902 0.666667 0 1
0.854902 0.666667 0 1
0.854902 0.666667 0 1
0.854902 0.666667 0 1
0.854902 0.666667 0 1
0.854902 0.666667 0 1
0.854902 0.666667 0 1
0.854902 0.666667 0 1
0.854902 0.666667 0 1
0.854902 0.666667 0 1
0.854902 0.666667 0 1
0.854902 0.666667 0 1
0.854902 0.666667 0 1
0.854902 0.666667 0 1
0.854902 0.666667 0 1
0.854902 0.666667 0 1
0.854902 0.666667 0 1
0.854902 0.666667 0 1
0.854902 0.666667 0 1
0.854902 0.666667 0 1
0.854902 0.666667 0 1
0.854902 0.666667 0 1
0.854902 0.666667 0 1
0.854902 0.666667 0 1
0.854902 0.666667 0 1
0.854902 0.666667 0 1
0.854902 0.666667 0 1
0.854902 0.666667 0 1
0.854902 0.666667 0 1
0.854902 0.666667 0 1
0.854902 0.666667 0 1
0.854902 0.666667 0 1
0.854902 0.666667 0 1
0.854902 0.666667 0 1
0.854902 0.666667 0 1
0.854902 0.666667 0 1
0.854902 0.666667 0 1
0.854902 0.666667 0 1
0.854902 0.666667 0 1
0.854902 0.666667 0 1
0.854902 0.666667 0 1
0.854902 0.666667 0 1
0.854902 0.666667 0 1
0.854902 0.666667 0 1
0.854902 0.666667 0 1
0.854902 0.666667 0 1
0.854902 0.666667 0 1
0.854902 0.666667 0 1
0.854902 0.666667 0 1
0.854902 0.666667 0 1
0.854902 0.666667 0 1
0.854902 0.666667 0 1
0.854902 0.666667 0 1
0.854902 0.666667 0 1
0.854902 0.666667 0 1
0.854902 0.666667 0 1
0.854902 0.666667 0 1
0.854902 0.666667 0 1
0.854902 0.666667 0 1
0.854902 0.666667 0 1
0.854902 0.666667 0 1
0.854902 0.666667 0 1
0.854902 0.666667 0 1
0.854902 0.666667 0 1
0.854902 0.666667 0 1
0.854902 0.666667 0 1
0.854902 0.666667 0 1
0.854902 0.666667 0 1
0.854902 0.666667 0 1
0.854902 0.666667 0 1
0.854902 0.666667 0 1
0.854902 0.666667 0 1
0.854902 0.666667 0 1
0.854902 0.666667 0 1
0.854902 0.666667 0 1
0.854902 0.666667 0 1
0.854902 0.666667 0 1
0.854902 0.666667 0 1
0.854902 0.666667 0 1
0.854902 0.666667 0 1
0.854902 0.666667 0 1
0.854902 0.666667 0 1
0.854902 0.666667 0 1
0.854902 0.666667 0 1
0.854902 0.666667 0 1
0.854902 0.666667 0 1
0.854902 0.666667 0 1
0.854902 0.666667 0 1
0.854902 0.666667 0 1
0.854902 0.666667 0 1
0.854902 0.666667 0 1
0.854902 0.666667 0 1
0.854902 0.666667 0 1
0.854902 0.666667 0 1
0.854902 0.666667 0 1
0.854902 0.666667 0 1
0.854902 0.666667 0 1
0.854902 0.666667 0 1
0.854902 0.666667 0 1
0.854902 0.666667 0 1
0.854902 0.666667 0 1
0.854902 0.666667 0 1
0.854902 0.666667 0 1
0.854902 0.666667 0 1
0.854902 0.666667 0 1
0.854902 0.666667 0 1
0.854902 0.666667 0 1
0.854902 0.666667 0 1
0.854902 0.666667 0 1
0.854902 0.666667 0 1
0.854902 0.666667 0 1
0.854902 0.666667 0 1
0.854902 0.666667 0 1
0.854902 0.666667 0 1
0.854902 0.666667 0 1
0.854902 0.666667 0 1
0.854902 0.666667 0 1
0.854902 0.666667 0 1
0.854902 0.666667 0 1
0.854902 0.666667 0 1
0.854902 0.666667 0 1
0.854902 0.666667 0 1
0.854902 0.666667 0 1
0.854902 0.666667 0 1
0.854902 0.666667 0 1
0.854902 0.666667 0 1
0.854902 0.666667 0 1
0.854902 0.666667 0 1
0.854902 0.666667 0 1
0.854902 0.666667 0 1
0.854902 0.666667 0 1
0.854902 0.666667 0 1
0.854902 0.666667 0 1
0.854902 0.666667 0 1
0.854902 0.666667 0 1
0.854902 0.666667 0 1
0.854902 0.666667 0 1
0.854902 0.666667 0 1
0.854902 0.666667 0 1
0.854902 0.666667 0 1
0.854902 0.666667 0 1
0.854902 0.666667 0 1
0.854902 0.666667 0 1
0.854902 0.666667 0 1
0.854902 0.666667 0 1
0.854902 0.666667 0 1
0.854902 0.666667 0 1
0.854902 0.666667 0 1
0.854902 0.666667 0 1
0.854902 0.666667 0 1
0.854902 0.666667 0 1
0.854902 0.666667 0 1
0.854902 0.666667 0 1
0.854902 0.666667 0 1
0.854902 0.666667 0 1
0.854902 0.666667 0 1
0.854902 0.666667 0 1
0.854902 0.666667 0 1
0.854902 0.666667 0 1
0.854902 0.666667 0 1
0.854902 0.666667 0 1
0.854902 0.666667 0 1
0.854902 0.666667 0 1
0.854902 0.666667 0 1
0.854902 0.666667 0 1
0.854902 0.666667 0 1
0.854902 0.666667 0 1
0.854902 0.666667 0 1
0.854902 0.666667 0 1
0.854902 0.666667 0 1
0.854902 0.666667 0 1
0.854902 0.666667 0 1
0.854902 0.666667 0 1
0.854902 0.666667 0 1
0.854902 0.666667 0 1
0.854902 0.666667 0 1
0.854902 0.666667 0 1
0.854902 0.666667 0 1
0.854902 0.666667 0 1
0.854902 0.666667 0 1
0.854902 0.666667 0 1
0.854902 0.666667 0 1
0.854902 0.666667 0 1
0.854902 0.666667 0 1
0.854902 0.666667 0 1
0.854902 0.666667 0 1
0.854902 0.666667 0 1
0.854902 0.666667 0 1
0.854902 0.666667 0 1
0.854902 0.666667 0 1
0.854902 0.666667 0 1
0.854902 0.666667 0 1
0.854902 0.666667 0 1
0.854902 0.666667 0 1
0.854902 0.666667 0 1
0.854902 0.666667 0 1
0.854902 0.666667 0 1
0.854902 0.666667 0 1
0.854902 0.666667 0 1
0.854902 0.666667 0 1
0.854902 0.666667 0 1
0.854902 0.666667 0 1
0.854902 0.666667 0 1
0.854902 0.666667 0 1
0.854902 0.666667 0 1
0.854902 0.666667 0 1
0.854902 0.666667 0 1
0.854902 0.666667 0 1
0.854902 0.666667 0 1
0.854902 0.666667 0 1
0.854902 0.666667 0 1
0.854902 0.666667 0 1
0.854902 0.666667 0 1
0.854902 0.666667 0 1
0.854902 0.666667 0 1
0.854902 0.666667 0 1
0.854902 0.666667 0 1
0.854902 0.666667 0 1
0.854902 0.666667 0 1
0.854902 0.666667 0 1
0.854902 0.666667 0 1
0.854902 0.666667 0 1
0.854902 0.666667 0 1
0.854902 0.666667 0 1
0.854902 0.666667 0 1
0.854902 0.666667 0 1
0.854902 0.666667 0 1
0.854902 0.666667 0 1
0.854902 0.666667 0 1
0.854902 0.666667 0 1
0.854902 0.666667 0 1
0.854902 0.666667 0 1
0.854902 0.666667 0 1
0.854902 0.666667 0 1
0.854902 0.666667 0 1
0.854902 0.666667 0 1
0.854902 0.666667 0 1
0.854902 0.666667 0 1
0.854902 0.666667 0 1
0.854902 0.666667 0 1
0.854902 0.666667 0 1
0.854902 0.666667 0 1
0.854902 0.666667 0 1
0.854902 0.666667 0 1
0.854902 0.666667 0 1
0.854902 0.666667 0 1
0.854902 0.666667 0 1
0.854902 0.666667 0 1
0.854902 0.666667 0 1
0.854902 0.666667 0 1
0.854902 0.666667 0 1
0.854902 0.666667 0 1
0.854902 0.666667 0 1
0.854902 0.666667 0 1
0.854902 0.666667 0 1
0.854902 0.666667 0 1
0.854902 0.666667 0 1
0.854902 0.666667 0 1
0.854902 0.666667 0 1
0.854902 0.666667 0 1
0.854902 0.666667 0 1
0.854902 0.666667 0 1
0.854902 0.666667 0 1
0.854902 0.666667 0 1
0.854902 0.666667 0 1
0.854902 0.666667 0 1
0.854902 0.666667 0 1
0.854902 0.666667 0 1
0.854902 0.666667 0 1
0.854902 0.666667 0 1
0.854902 0.666667 0 1
0.854902 0.666667 0 1
0.854902 0.666667 0 1
0.854902 0.666667 0 1
0.854902 0.666667 0 1
0.854902 0.666667 0 1
0.854902 0.666667 0 1
0.854902 0.666667 0 1
0.854902 0.666667 0 1
0.854902 0.666667 0 1
0.854902 0.666667 0 1
0.854902 0.666667 0 1
0.854902 0.666667 0 1
0.854902 0.666667 0 1
0.854902 0.666667 0 1
0.854902 0.666667 0 1
0.854902 0.666667 0 1
0.854902 0.666667 0 1
0.854902 0.666667 0 1
0.854902 0.666667 0 1
0.854902 0.666667 0 1
0.854902 0.666667 0 1
0.854902 0.666667 0 1
0.854902 0.666667 0 1
0.854902 0.666667 0 1
0.854902 0.666667 0 1
0.854902 0.666667 0 1
0.854902 0.666667 0 1
0.854902 0.666667 0 1
0.854902 0.666667 0 1
0.854902 0.666667 0 1
0.854902 0.666667 0 1
0.854902 0.666667 0 1
0.854902 0.666667 0 1
0.854902 0.666667 0 1
0.854902 0.666667 0 1
0.854902 0.666667 0 1
0.854902 0.666667 0 1
0.854902 0.666667 0 1
0.854902 0.666667 0 1
0.854902 0.666667 0 1
0.854902 0.666667 0 1
0.854902 0.666667 0 1
0.854902 0.666667 0 1
0.854902 0.666667 0 1
0.854902 0.666667 0 1
0.854902 0.666667 0 1
0.854902 0.666667 0 1
0.854902 0.666667 0 1
0.854902 0.666667 0 1
0.854902 0.666667 0 1
0.854902 0.666667 0 1
0.854902 0.666667 0 1
0.854902 0.666667 0 1
0.854902 0.666667 0 1
0.854902 0.666667 0 1
0.854902 0.666667 0 1
0.854902 0.666667 0 1
0.854902 0.666667 0 1
0.854902 0.666667 0 1
0.854902 0.666667 0 1
0.854902 0.666667 0 1
0.854902 0.666667 0 1
0.854902 0.666667 0 1
0.854902 0.666667 0 1
0.854902 0.666667 0 1
0.854902 0.666667 0 1
0.854902 0.666667 0 1
0.854902 0.666667 0 1
0.854902 0.666667 0 1
0.854902 0.666667 0 1
0.854902 0.666667 0 1
0.854902 0.666667 0 1
0.854902 0.666667 0 1
0.854902 0.666667 0 1
0.854902 0.666667 0 1
0.854902 0.666667 0 1
0.854902 0.666667 0 1
0.854902 0.666667 0 1
0.854902 0.666667 0 1
0.854902 0.666667 0 1
0.854902 0.666667 0 1
0.854902 0.666667 0 1
0.854902 0.666667 0 1
0.854902 0.666667 0 1
0.854902 0.666667 0 1
0.854902 0.666667 0 1
0.854902 0.666667 0 1
0.854902 0.666667 0 1
0.854902 0.666667 0 1
0.854902 0.666667 0 1
0.854902 0.666667 0 1
0.854902 0.666667 0 1
0.854902 0.666667 0 1
0.854902 0.666667 0 1
0.854902 0.666667 0 1
0.854902 0.666667 0 1
0.854902 0.666667 0 1
0.854902 0.666667 0 1
0.854902 0.666667 0 1
0.854902 0.666667 0 1
0.854902 0.666667 0 1
0.854902 0.666667 0 1
0.854902 0.666667 0 1
0.854902 0.666667 0 1
0.854902 0.666667 0 1
0.854902 0.666667 0 1
0.854902 0.666667 0 1
0.854902 0.666667 0 1
0.854902 0.666667 0 1
0.854902 0.666667 0 1
0.854902 0.666667 0 1
0.854902 0.666667 0 1
0.854902 0.666667 0 1
0.854902 0.666667 0 1
0.854902 0.666667 0 1
0.854902 0.666667 0 1
0.854902 0.666667 0 1
0.854902 0.666667 0 1
0.854902 0.666667 0 1
0.854902 0.666667 0 1
0.854902 0.666667 0 1
0.854902 0.666667 0 1
0.854902 0.666667 0 1
0.854902 0.666667 0 1
0.854902 0.666667 0 1
0.854902 0.666667 0 1
0.854902 0.666667 0 1
0.854902 0.666667 0 1
0.854902 0.666667 0 1
0.854902 0.666667 0 1
0.854902 0.666667 0 1
0.854902 0.666667 0 1
0.854902 0.666667 0 1
0.854902 0.666667 0 1
0.854902 0.666667 0 1
0.854902 0.666667 0 1
0.854902 0.666667 0 1
0.854902 0.666667 0 1
0.854902 0.666667 0 1
0.854902 0.666667 0 1
0.854902 0.666667 0 1
0.854902 0.666667 0 1
0.854902 0.666667 0 1
0.854902 0.666667 0 1
0.854902 0.666667 0 1
0.854902 0.666667 0 1
0.854902 0.666667 0 1
0.854902 0.666667 0 1
0.854902 0.666667 0 1
0.854902 0.666667 0 1
0.854902 0.666667 0 1
0.854902 0.666667 0 1
0.854902 0.666667 0 1
0.854902 0.666667 0 1
0.854902 0.666667 0 1
0.854902 0.666667 0 1
0.854902 0.666667 0 1
0.854902 0.666667 0 1
0.854902 0.666667 0 1
0.854902 0.666667 0 1
0.854902 0.666667 0 1
0.854902 0.666667 0 1
0.854902 0.666667 0 1
0.854902 0.666667 0 1
0.854902 0.666667 0 1
0.854902 0.666667 0 1
0.854902 0.666667 0 1
0.854902 0.666667 0 1
0.854902 0.666667 0 1
0.854902 0.666667 0 1
0.854902 0.666667 0 1
0.854902 0.666667 0 1
0.854902 0.666667 0 1
0.854902 0.666667 0 1
0.854902 0.666667 0 1
0.854902 0.666667 0 1
0.854902 0.666667 0 1
0.854902 0.666667 0 1
0.854902 0.666667 0 1
0.854902 0.666667 0 1
0.854902 0.666667 0 1
0.854902 0.666667 0 1
0.854902 0.666667 0 1
0.854902 0.666667 0 1
0.854902 0.666667 0 1
0.854902 0.666667 0 1
0.854902 0.666667 0 1
0.854902 0.666667 0 1
0.854902 0.666667 0 1
0.854902 0.666667 0 1
0.854902 0.666667 0 1
0.854902 0.666667 0 1
0.854902 0.666667 0 1
0.854902 0.666667 0 1
0.854902 0.666667 0 1
0.854902 0.666667 0 1
0.854902 0.666667 0 1
0.854902 0.666667 0 1
0.854902 0.666667 0 1
0.854902 0.666667 0 1
0.854902 0.666667 0 1
0.854902 0.666667 0 1
0.854902 0.666667 0 1
0.854902 0.666667 0 1
0.854902 0.666667 0 1
0.854902 0.666667 0 1
0.854902 0.666667 0 1