# vtk DataFile Version 3.0
Gocad TSurf to VTK
ASCII
DATASET POLYDATA
POINTS 1078 float
21507810.734 4567851.949 -713.387
21507785.063 4567764.648 48.817
21507776.891 4567851.199 -713.403
21507739.938 4567763.648 48.796
21507813.844 4567938.750 -1475.602
21507830.188 4567765.645 48.839
21507844.578 4567852.695 -713.371
21507836.406 4567939.250 -1475.591
21507875.297 4567766.641 48.860
21507878.406 4567853.445 -713.355
21507858.969 4567939.750 -1475.581
21507912.250 4567854.195 -713.339
21507904.094 4567940.750 -1475.559
21507920.422 4567767.641 48.881
21507946.094 4567854.941 -713.219
21507926.656 4567941.246 -1475.479
21507965.547 4567768.637 49.041
21508021.813 4567837.125 -713.219
21508010.672 4567769.633 49.209
21508055.656 4567837.875 -713.094
21508078.094 4567905.617 -1475.479
21508045.063 4567760.996 49.416
21508081.453 4567831.395 -712.938
21508100.656 4567906.113 -1475.396
21508079.453 4567752.359 49.623
21508107.250 4567824.918 -712.783
21508117.844 4567901.797 -1475.292
21508129.531 4567799.219 -712.478
21508149.906 4567880.344 -1474.985
21508109.172 4567718.094 50.029
21508151.813 4567773.520 -712.174
21508164.750 4567863.211 -1474.782
21508138.875 4567683.828 50.435
21508174.094 4567747.816 -711.869
21508179.609 4567846.078 -1474.579
21508168.594 4567649.559 50.841
21508255.750 4567706.246 -711.869
21508198.313 4567615.293 51.248
21508278.047 4567680.547 -711.564
21508342.922 4567762.934 -1474.579
21508298.828 4567628.586 -711.564
21508399.344 4567641.875 -1474.376
21508217.094 4567573.621 51.674
21508312.922 4567597.328 -711.244
21508235.875 4567531.945 51.922
21508327.000 4567566.074 -711.059
21508408.750 4567621.039 -1474.163
21508254.672 4567490.273 52.091
21508341.094 4567534.820 -710.931
21508427.531 4567579.367 -1473.954
21508355.188 4567503.563 -710.804
21508436.922 4567558.527 -1473.869
21508273.453 4567448.598 52.261
21508368.547 4567459.023 -710.804
21508463.641 4567469.445 -1473.869
21508292.234 4567406.926 52.431
21508382.625 4567427.770 -710.677
21508311.016 4567365.250 52.601
21508396.719 4567396.512 -710.549
21508473.031 4567448.609 -1473.784
21508329.813 4567323.578 52.771
21508410.813 4567365.258 -710.421
21508491.813 4567406.938 -1473.614
21508415.281 4567310.328 -710.421
21508500.734 4567297.074 -1473.614
21508348.594 4567281.902 52.941
21508429.359 4567279.070 -710.294
21508367.375 4567240.230 53.111
21508443.438 4567247.816 -710.167
21508510.125 4567276.234 -1473.529
21508374.516 4567197.578 53.360
21508448.797 4567215.828 -709.980
21508523.094 4567234.074 -1473.320
21508454.156 4567183.840 -709.793
21508526.656 4567212.750 -1473.196
21508381.656 4567154.930 53.609
21508459.531 4567151.852 -709.607
21508530.234 4567191.422 -1473.071
21508388.813 4567112.277 53.857
21508468.438 4567114.734 -709.607
21508548.047 4567117.188 -1473.071
21508395.953 4567069.625 54.106
21508473.781 4567082.742 -709.420
21508403.094 4567026.977 54.355
21508479.141 4567050.758 -709.234
21508555.188 4567074.539 -1472.823
21508484.500 4567018.770 -709.047
21508558.750 4567053.211 -1472.698
21508410.234 4566984.324 54.604
21508431.156 4566950.184 54.709
21508500.188 4566993.164 -708.969
21508452.063 4566916.043 54.814
21508515.875 4566967.559 -708.890
21508579.672 4567019.070 -1472.593
21508530.719 4566940.836 -708.890
21508523.688 4566909.918 -708.634
21508604.688 4566945.016 -1472.423
21508442.688 4566874.820 55.155
21508535.563 4566871.316 -708.634
21508534.078 4566850.531 -708.634
21508628.438 4566867.813 -1472.423
21508510.313 4566817.867 -708.634
21508577.953 4566760.914 -1472.423
21508433.328 4566833.594 55.496
21508503.297 4566786.949 -708.378
21508481.031 4566769.133 -708.378
21508528.734 4566704.672 -1472.252
21508423.969 4566792.371 55.837
21508474.016 4566738.215 -708.122
21508414.594 4566751.148 56.178
21508466.984 4566707.297 -707.866
21508524.063 4566684.059 -1472.082
21508387.781 4566718.363 56.569
21508446.875 4566682.711 -707.573
21508505.969 4566647.055 -1471.716
21508426.766 4566658.121 -707.280
21508492.563 4566630.664 -1471.520
21508360.969 4566685.578 56.960
21508406.641 4566633.535 -706.987
21508479.141 4566614.273 -1471.324
21508334.141 4566652.797 57.351
21508386.531 4566608.945 -706.694
21508465.734 4566597.879 -1471.129
21508307.328 4566620.012 57.742
21508368.719 4566570.344 -706.694
21508430.094 4566520.680 -1471.129
21508280.516 4566587.227 58.133
21508348.609 4566545.758 -706.400
21508416.688 4566504.285 -1470.933
21508266.641 4566546.719 58.497
21508338.203 4566515.375 -706.127
21508252.766 4566506.215 58.861
21508327.797 4566484.996 -705.854
21508402.813 4566463.781 -1470.569
21508238.891 4566465.707 59.070
21508317.391 4566454.617 -705.697
21508395.875 4566443.523 -1470.465
21508307.109 4566421.500 -705.649
21508389.031 4566421.445 -1470.433
21508225.188 4566421.551 59.134
21508296.828 4566388.383 -705.602
21508382.188 4566399.367 -1470.401
21508211.484 4566377.395 59.198
21508286.563 4566355.262 -705.554
21508375.328 4566377.289 -1470.369
21508197.781 4566333.234 59.261
21508276.281 4566322.145 -705.377
21508368.469 4566355.211 -1470.251
21508184.078 4566289.078 59.497
21508266.000 4566289.027 -704.987
21508361.625 4566333.133 -1469.991
21508170.375 4566244.922 60.018
21508258.578 4566183.617 -704.987
21508158.406 4566202.430 60.500
21508249.594 4566151.746 -704.625
21508346.781 4566122.313 -1469.991
21508146.453 4566159.938 60.983
21508240.641 4566119.879 -704.263
21508340.797 4566101.063 -1469.750
21508134.500 4566117.449 61.465
21508231.672 4566088.012 -703.901
21508328.844 4566058.574 -1469.267
21508122.531 4566074.957 61.948
21508222.688 4566056.141 -703.539
21508322.859 4566037.328 -1469.026
21508213.719 4566024.273 -703.177
21508316.875 4566016.082 -1468.785
21508110.563 4566032.465 62.431
21508204.750 4565992.406 -702.815
21508310.906 4565994.836 -1468.543
21508098.609 4565989.973 62.913
21508104.391 4565943.344 63.156
21508209.094 4565957.434 -702.633
21508110.172 4565896.715 63.399
21508213.422 4565922.461 -702.450
21508316.688 4565948.207 -1468.300
21508212.625 4565888.094 -702.194
21508316.141 4565925.297 -1468.130
21508109.094 4565850.891 63.741
21508211.813 4565853.727 -701.938
21508315.609 4565902.383 -1467.959
21508108.031 4565805.066 64.082
21508211.016 4565819.355 -701.683
21508315.063 4565879.469 -1467.788
21508106.953 4565759.242 64.423
21508206.563 4565697.613 -701.683
21508306.156 4565635.984 -1467.788
21508105.875 4565713.422 64.765
21508205.750 4565663.250 -701.427
21508104.797 4565667.598 65.106
21508204.938 4565628.883 -701.170
21508305.625 4565613.078 -1467.618
21508103.719 4565621.773 65.447
21508204.125 4565594.512 -700.915
21508305.094 4565590.164 -1467.447
21508102.656 4565575.949 65.788
21508203.344 4565560.145 -700.659
21508304.547 4565567.250 -1467.276
21508101.578 4565530.125 66.130
21508202.531 4565525.777 -700.403
21508304.016 4565544.340 -1467.106
21508208.469 4565494.598 -700.403
21508303.469 4565521.430 -1466.935
21508171.344 4565448.574 -700.403
21508241.125 4565367.023 -1466.935
21508069.031 4565496.250 66.863
21508146.938 4565423.168 -699.853
21508224.844 4565350.086 -1466.568
21508122.516 4565397.762 -699.303
21508208.563 4565333.148 -1466.202
21508036.469 4565462.375 67.597
21508092.828 4565369.555 -699.303
21508033.438 4565366.586 -699.303
21508030.406 4565270.793 -1466.202
21508003.922 4565428.504 67.554
21508009.031 4565341.180 -699.334
21507971.359 4565394.629 67.448
21507984.609 4565315.773 -699.414
21508014.125 4565253.859 -1466.223
21507938.813 4565360.754 67.342
21507960.188 4565290.367 -699.494
21507997.844 4565236.922 -1466.276
21507904.844 4565347.977 67.068
21507934.719 4565280.785 -699.699
21507981.578 4565219.984 -1466.329
21507870.875 4565335.195 66.794
21507909.250 4565271.199 -699.904
21507947.609 4565207.203 -1466.603
21507854.313 4565269.715 -699.904
21507837.750 4565204.234 -1466.603
21507825.406 4565344.906 66.235
21507820.203 4565276.996 -700.324
21507790.516 4565285.906 -700.324
21507815.000 4565209.086 -1466.883
21507779.953 4565354.617 65.675
21507756.422 4565293.188 -700.744
21507755.625 4565226.906 -1466.883
21507744.188 4565366.691 65.203
21507729.594 4565302.242 -701.098
21507732.891 4565231.758 -1467.162
21507702.766 4565311.297 -701.452
21507697.125 4565243.832 -1467.635
21507708.406 4565378.762 64.731
21507661.188 4565338.020 -701.452
21507613.969 4565297.281 -1467.635
21507672.641 4565390.836 64.258
21507634.375 4565347.078 -701.806
21507610.563 4565369.941 -702.228
21507596.094 4565303.316 -1467.871
21507640.906 4565421.324 63.697
21507586.766 4565392.813 -702.648
21507564.359 4565333.805 -1468.432
21507609.172 4565451.816 63.135
21507558.563 4565418.051 -702.648
21507507.938 4565384.285 -1468.432
21507577.438 4565482.305 62.574
21507534.750 4565440.918 -703.070
21507545.719 4565512.797 62.012
21507510.969 4565463.785 -703.491
21507492.078 4565399.531 -1468.713
21507487.172 4565486.652 -703.912
21507460.344 4565430.020 -1469.275
21507513.984 4565543.285 61.451
21507463.375 4565509.523 -704.333
21507444.484 4565445.266 -1469.555
21507482.250 4565573.777 60.889
21507439.563 4565532.387 -704.754
21507428.625 4565460.508 -1469.836
21507450.516 4565604.266 60.328
21507413.141 4565549.344 -705.161
21507411.000 4565471.813 -1470.107
21507415.281 4565626.871 59.786
21507368.594 4565567.156 -705.161
21507321.922 4565507.445 -1470.107
21507380.063 4565649.477 59.243
21507342.188 4565584.113 -705.567
21507315.766 4565601.063 -705.974
21507304.313 4565518.750 -1470.378
21507344.828 4565672.078 58.701
21507289.344 4565618.016 -706.381
21507269.078 4565541.352 -1470.921
21507309.594 4565694.684 58.159
21507270.281 4565698.984 57.704
21507259.844 4565621.242 -706.722
21507230.969 4565703.281 57.250
21507230.375 4565624.465 -707.063
21507249.422 4565543.500 -1471.148
21507200.891 4565627.688 -707.403
21507210.125 4565547.797 -1471.602
21507191.672 4565707.578 56.796
21507171.406 4565630.914 -707.744
21507190.469 4565549.949 -1471.829
21507152.359 4565711.879 56.341
21507112.250 4565705.656 55.954
[...]
POINT_DATA 1078
COLOR_SCALARS GocadColor 4
0.588235 0.321569 0.176471 1
0.588235 0.321569 0.176471 1
0.588235 0.321569 0.176471 1
0.588235 0.321569 0.176471 1
0.588235 0.321569 0.176471 1
0.588235 0.321569 0.176471 1
0.588235 0.321569 0.176471 1
0.588235 0.321569 0.176471 1
0.588235 0.321569 0.176471 1
0.588235 0.321569 0.176471 1
0.588235 0.321569 0.176471 1
0.588235 0.321569 0.176471 1
0.588235 0.321569 0.176471 1
0.588235 0.321569 0.176471 1
0.588235 0.321569 0.176471 1
0.588235 0.321569 0.176471 1
0.588235 0.321569 0.176471 1
0.588235 0.321569 0.176471 1
0.588235 0.321569 0.176471 1
0.588235 0.321569 0.176471 1
0.588235 0.321569 0.176471 1
0.588235 0.321569 0.176471 1
0.588235 0.321569 0.176471 1
0.588235 0.321569 0.176471 1
0.588235 0.321569 0.176471 1
0.588235 0.321569 0.176471 1
0.588235 0.321569 0.176471 1
0.588235 0.321569 0.176471 1
0.588235 0.321569 0.176471 1
0.588235 0.321569 0.176471 1
0.588235 0.321569 0.176471 1
0.588235 0.321569 0.176471 1
0.588235 0.321569 0.176471 1
0.588235 0.321569 0.176471 1
0.588235 0.321569 0.176471 1
0.588235 0.321569 0.176471 1
0.588235 0.321569 0.176471 1
0.588235 0.321569 0.176471 1
0.588235 0.321569 0.176471 1
0.588235 0.321569 0.176471 1
0.588235 0.321569 0.176471 1
0.588235 0.321569 0.176471 1
0.588235 0.321569 0.176471 1
0.588235 0.321569 0.176471 1
0.588235 0.321569 0.176471 1
0.588235 0.321569 0.176471 1
0.588235 0.321569 0.176471 1
0.588235 0.321569 0.176471 1
0.588235 0.321569 0.176471 1
0.588235 0.321569 0.176471 1
0.588235 0.321569 0.176471 1
0.588235 0.321569 0.176471 1
0.588235 0.321569 0.176471 1
0.588235 0.321569 0.176471 1
0.588235 0.321569 0.176471 1
0.588235 0.321569 0.176471 1
0.588235 0.321569 0.176471 1
0.588235 0.321569 0.176471 1
0.588235 0.321569 0.176471 1
0.588235 0.321569 0.176471 1
0.588235 0.321569 0.176471 1
0.588235 0.321569 0.176471 1
0.588235 0.321569 0.176471 1
0.588235 0.321569 0.176471 1
0.588235 0.321569 0.176471 1
0.588235 0.321569 0.176471 1
0.588235 0.321569 0.176471 1
0.588235 0.321569 0.176471 1
0.588235 0.321569 0.176471 1
0.588235 0.321569 0.176471 1
0.588235 0.321569 0.176471 1
0.588235 0.321569 0.176471 1
0.588235 0.321569 0.176471 1
0.588235 0.321569 0.176471 1
0.588235 0.321569 0.176471 1
0.588235 0.321569 0.176471 1
0.588235 0.321569 0.176471 1
0.588235 0.321569 0.176471 1
0.588235 0.321569 0.176471 1
0.588235 0.321569 0.176471 1
0.588235 0.321569 0.176471 1
0.588235 0.321569 0.176471 1
0.588235 0.321569 0.176471 1
0.588235 0.321569 0.176471 1
0.588235 0.321569 0.176471 1
0.588235 0.321569 0.176471 1
0.588235 0.321569 0.176471 1
0.588235 0.321569 0.176471 1
0.588235 0.321569 0.176471 1
0.588235 0.321569 0.176471 1
0.588235 0.321569 0.176471 1
0.588235 0.321569 0.176471 1
0.588235 0.321569 0.176471 1
0.588235 0.321569 0.176471 1
0.588235 0.321569 0.176471 1
0.588235 0.321569 0.176471 1
0.588235 0.321569 0.176471 1
0.588235 0.321569 0.176471 1
0.588235 0.321569 0.176471 1
0.588235 0.321569 0.176471 1
0.588235 0.321569 0.176471 1
0.588235 0.321569 0.176471 1
0.588235 0.321569 0.176471 1
0.588235 0.321569 0.176471 1
0.588235 0.321569 0.176471 1
0.588235 0.321569 0.176471 1
0.588235 0.321569 0.176471 1
0.588235 0.321569 0.176471 1
0.588235 0.321569 0.176471 1
0.588235 0.321569 0.176471 1
0.588235 0.321569 0.176471 1
0.588235 0.321569 0.176471 1
0.588235 0.321569 0.176471 1
0.588235 0.321569 0.176471 1
0.588235 0.321569 0.176471 1
0.588235 0.321569 0.176471 1
0.588235 0.321569 0.176471 1
0.588235 0.321569 0.176471 1
0.588235 0.321569 0.176471 1
0.588235 0.321569 0.176471 1
0.588235 0.321569 0.176471 1
0.588235 0.321569 0.176471 1
0.588235 0.321569 0.176471 1
0.588235 0.321569 0.176471 1
0.588235 0.321569 0.176471 1
0.588235 0.321569 0.176471 1
0.588235 0.321569 0.176471 1
0.588235 0.321569 0.176471 1
0.588235 0.321569 0.176471 1
0.588235 0.321569 0.176471 1
0.588235 0.321569 0.176471 1
0.588235 0.321569 0.176471 1
0.588235 0.321569 0.176471 1
0.588235 0.321569 0.176471 1
0.588235 0.321569 0.176471 1
0.588235 0.321569 0.176471 1
0.588235 0.321569 0.176471 1
0.588235 0.321569 0.176471 1
0.588235 0.321569 0.176471 1
0.588235 0.321569 0.176471 1
0.588235 0.321569 0.176471 1
0.588235 0.321569 0.176471 1
0.588235 0.321569 0.176471 1
0.588235 0.321569 0.176471 1
0.588235 0.321569 0.176471 1
0.588235 0.321569 0.176471 1
0.588235 0.321569 0.176471 1
0.588235 0.321569 0.176471 1
0.588235 0.321569 0.176471 1
0.588235 0.321569 0.176471 1
0.588235 0.321569 0.176471 1
0.588235 0.321569 0.176471 1
0.588235 0.321569 0.176471 1
0.588235 0.321569 0.176471 1
0.588235 0.321569 0.176471 1
0.588235 0.321569 0.176471 1
0.588235 0.321569 0.176471 1
0.588235 0.321569 0.176471 1
0.588235 0.321569 0.176471 1
0.588235 0.321569 0.176471 1
0.588235 0.321569 0.176471 1
0.588235 0.321569 0.176471 1
0.588235 0.321569 0.176471 1
0.588235 0.321569 0.176471 1
0.588235 0.321569 0.176471 1
0.588235 0.321569 0.176471 1
0.588235 0.321569 0.176471 1
0.588235 0.321569 0.176471 1
0.588235 0.321569 0.176471 1
0.588235 0.321569 0.176471 1
0.588235 0.321569 0.176471 1
0.588235 0.321569 0.176471 1
0.588235 0.321569 0.176471 1
0.588235 0.321569 0.176471 1
0.588235 0.321569 0.176471 1
0.588235 0.321569 0.176471 1
0.588235 0.321569 0.176471 1
0.588235 0.321569 0.176471 1
0.588235 0.321569 0.176471 1
0.588235 0.321569 0.176471 1
0.588235 0.321569 0.176471 1
0.588235 0.321569 0.176471 1
0.588235 0.321569 0.176471 1
0.588235 0.321569 0.176471 1
0.588235 0.321569 0.176471 1
0.588235 0.321569 0.176471 1
0.588235 0.321569 0.176471 1
0.588235 0.321569 0.176471 1
0.588235 0.321569 0.176471 1
0.588235 0.321569 0.176471 1
0.588235 0.321569 0.176471 1
0.588235 0.321569 0.176471 1
0.588235 0.321569 0.176471 1
0.588235 0.321569 0.176471 1
0.588235 0.321569 0.176471 1
0.588235 0.321569 0.176471 1
0.588235 0.321569 0.176471 1
0.588235 0.321569 0.176471 1
0.588235 0.321569 0.176471 1
0.588235 0.321569 0.176471 1
0.588235 0.321569 0.176471 1
0.588235 0.321569 0.176471 1
0.588235 0.321569 0.176471 1
0.588235 0.321569 0.176471 1
0.588235 0.321569 0.176471 1
0.588235 0.321569 0.176471 1
0.588235 0.321569 0.176471 1
0.588235 0.321569 0.176471 1
0.588235 0.321569 0.176471 1
0.588235 0.321569 0.176471 1
0.588235 0.321569 0.176471 1
0.588235 0.321569 0.176471 1
0.588235 0.321569 0.176471 1
0.588235 0.321569 0.176471 1
0.588235 0.321569 0.176471 1
0.588235 0.321569 0.176471 1
0.588235 0.321569 0.176471 1
0.588235 0.321569 0.176471 1
0.588235 0.321569 0.176471 1
0.588235 0.321569 0.176471 1
0.588235 0.321569 0.176471 1
0.588235 0.321569 0.176471 1
0.588235 0.321569 0.176471 1
0.588235 0.321569 0.176471 1
0.588235 0.321569 0.176471 1
0.588235 0.321569 0.176471 1
0.588235 0.321569 0.176471 1
0.588235 0.321569 0.176471 1
0.588235 0.321569 0.176471 1
0.588235 0.321569 0.176471 1
0.588235 0.321569 0.176471 1
0.588235 0.321569 0.176471 1
0.588235 0.321569 0.176471 1
0.588235 0.321569 0.176471 1
0.588235 0.321569 0.176471 1
0.588235 0.321569 0.176471 1
0.588235 0.321569 0.176471 1
0.588235 0.321569 0.176471 1
0.588235 0.321569 0.176471 1
0.588235 0.321569 0.176471 1
0.588235 0.321569 0.176471 1
0.588235 0.321569 0.176471 1
0.588235 0.321569 0.176471 1
0.588235 0.321569 0.176471 1
0.588235 0.321569 0.176471 1
0.588235 0.321569 0.176471 1
0.588235 0.321569 0.176471 1
0.588235 0.321569 0.176471 1
0.588235 0.321569 0.176471 1
0.588235 0.321569 0.176471 1
0.588235 0.321569 0.176471 1
0.588235 0.321569 0.176471 1
0.588235 0.321569 0.176471 1
0.588235 0.321569 0.176471 1
0.588235 0.321569 0.176471 1
0.588235 0.321569 0.176471 1
0.588235 0.321569 0.176471 1
0.588235 0.321569 0.176471 1
0.588235 0.321569 0.176471 1
0.588235 0.321569 0.176471 1
0.588235 0.321569 0.176471 1
0.588235 0.321569 0.176471 1
0.588235 0.321569 0.176471 1
0.588235 0.321569 0.176471 1
0.588235 0.321569 0.176471 1
0.588235 0.321569 0.176471 1
0.588235 0.321569 0.176471 1
0.588235 0.321569 0.176471 1
0.588235 0.321569 0.176471 1
0.588235 0.321569 0.176471 1
0.588235 0.321569 0.176471 1
0.588235 0.321569 0.176471 1
0.588235 0.321569 0.176471 1
0.588235 0.321569 0.176471 1
0.588235 0.321569 0.176471 1
0.588235 0.321569 0.176471 1
0.588235 0.321569 0.176471 1
0.588235 0.321569 0.176471 1
0.588235 0.321569 0.176471 1
0.588235 0.321569 0.176471 1
0.588235 0.321569 0.176471 1
0.588235 0.321569 0.176471 1
0.588235 0.321569 0.176471 1
0.588235 0.321569 0.176471 1
0.588235 0.321569 0.176471 1
0.588235 0.321569 0.176471 1
0.588235 0.321569 0.176471 1
0.588235 0.321569 0.176471 1
0.588235 0.321569 0.176471 1
0.588235 0.321569 0.176471 1
0.588235 0.321569 0.176471 1
0.588235 0.321569 0.176471 1
0.588235 0.321569 0.176471 1
0.588235 0.321569 0.176471 1
0.588235 0.321569 0.176471 1
0.588235 0.321569 0.176471 1
0.588235 0.321569 0.176471 1
0.588235 0.321569 0.176471 1
0.588235 0.321569 0.176471 1
0.588235 0.321569 0.176471 1
0.588235 0.321569 0.176471 1
0.588235 0.321569 0.176471 1
0.588235 0.321569 0.176471 1
0.588235 0.321569 0.176471 1
0.588235 0.321569 0.176471 1
0.588235 0.321569 0.176471 1
0.588235 0.321569 0.176471 1
0.588235 0.321569 0.176471 1
0.588235 0.321569 0.176471 1
0.588235 0.321569 0.176471 1
0.588235 0.321569 0.176471 1
0.588235 0.321569 0.176471 1
0.588235 0.321569 0.176471 1
0.588235 0.321569 0.176471 1
0.588235 0.321569 0.176471 1
0.588235 0.321569 0.176471 1
0.588235 0.321569 0.176471 1
0.588235 0.321569 0.176471 1
0.588235 0.321569 0.176471 1
0.588235 0.321569 0.176471 1
0.588235 0.321569 0.176471 1
0.588235 0.321569 0.176471 1
0.588235 0.321569 0.176471 1
0.588235 0.321569 0.176471 1
0.588235 0.321569 0.176471 1
0.588235 0.321569 0.176471 1
0.588235 0.321569 0.176471 1
0.588235 0.321569 0.176471 1
0.588235 0.321569 0.176471 1
0.588235 0.321569 0.176471 1
0.588235 0.321569 0.176471 1
0.588235 0.321569 0.176471 1
0.588235 0.321569 0.176471 1
0.588235 0.321569 0.176471 1
0.588235 0.321569 0.176471 1
0.588235 0.321569 0.176471 1
0.588235 0.321569 0.176471 1
0.588235 0.321569 0.176471 1
0.588235 0.321569 0.176471 1
0.588235 0.321569 0.176471 1
0.588235 0.321569 0.176471 1
0.588235 0.321569 0.176471 1
0.588235 0.321569 0.176471 1
0.588235 0.321569 0.176471 1
0.588235 0.321569 0.176471 1
0.588235 0.321569 0.176471 1
0.588235 0.321569 0.176471 1
0.588235 0.321569 0.176471 1
0.588235 0.321569 0.176471 1
0.588235 0.321569 0.176471 1
0.588235 0.321569 0.176471 1
0.588235 0.321569 0.176471 1
0.588235 0.321569 0.176471 1
0.588235 0.321569 0.176471 1
0.588235 0.321569 0.176471 1
0.588235 0.321569 0.176471 1
0.588235 0.321569 0.176471 1
0.588235 0.321569 0.176471 1
0.588235 0.321569 0.176471 1
0.588235 0.321569 0.176471 1
0.588235 0.321569 0.176471 1
0.588235 0.321569 0.176471 1
0.588235 0.321569 0.176471 1
0.588235 0.321569 0.176471 1
0.588235 0.321569 0.176471 1
0.588235 0.321569 0.176471 1
0.588235 0.321569 0.176471 1
0.588235 0.321569 0.176471 1
0.588235 0.321569 0.176471 1
0.588235 0.321569 0.176471 1
0.588235 0.321569 0.176471 1
0.588235 0.321569 0.176471 1
0.588235 0.321569 0.176471 1
0.588235 0.321569 0.176471 1
0.588235 0.321569 0.176471 1
0.588235 0.321569 0.176471 1
0.588235 0.321569 0.176471 1
0.588235 0.321569 0.176471 1
0.588235 0.321569 0.176471 1
0.588235 0.321569 0.176471 1
0.588235 0.321569 0.176471 1
0.588235 0.321569 0.176471 1
0.588235 0.321569 0.176471 1
0.588235 0.321569 0.176471 1
0.588235 0.321569 0.176471 1
0.588235 0.321569 0.176471 1
0.588235 0.321569 0.176471 1
0.588235 0.321569 0.176471 1
0.588235 0.321569 0.176471 1
0.588235 0.321569 0.176471 1
0.588235 0.321569 0.176471 1
0.588235 0.321569 0.176471 1
0.588235 0.321569 0.176471 1
0.588235 0.321569 0.176471 1
0.588235 0.321569 0.176471 1
0.588235 0.321569 0.176471 1
0.588235 0.321569 0.176471 1
0.588235 0.321569 0.176471 1
0.588235 0.321569 0.176471 1
0.588235 0.321569 0.176471 1
0.588235 0.321569 0.176471 1
0.588235 0.321569 0.176471 1
0.588235 0.321569 0.176471 1
0.588235 0.321569 0.176471 1
0.588235 0.321569 0.176471 1
0.588235 0.321569 0.176471 1
0.588235 0.321569 0.176471 1
0.588235 0.321569 0.176471 1
0.588235 0.321569 0.176471 1
0.588235 0.321569 0.176471 1
0.588235 0.321569 0.176471 1
0.588235 0.321569 0.176471 1
0.588235 0.321569 0.176471 1
0.588235 0.321569 0.176471 1
0.588235 0.321569 0.176471 1
0.588235 0.321569 0.176471 1
0.588235 0.321569 0.176471 1
0.588235 0.321569 0.176471 1
0.588235 0.321569 0.176471 1
0.588235 0.321569 0.176471 1
0.588235 0.321569 0.176471 1
0.588235 0.321569 0.176471 1
0.588235 0.321569 0.176471 1
0.588235 0.321569 0.176471 1
0.588235 0.321569 0.176471 1
0.588235 0.321569 0.176471 1
0.588235 0.321569 0.176471 1
0.588235 0.321569 0.176471 1
0.588235 0.321569 0.176471 1
0.588235 0.321569 0.176471 1
0.588235 0.321569 0.176471 1
0.588235 0.321569 0.176471 1
0.588235 0.321569 0.176471 1
0.588235 0.321569 0.176471 1
0.588235 0.321569 0.176471 1
0.588235 0.321569 0.176471 1
0.588235 0.321569 0.176471 1
0.588235 0.321569 0.176471 1
0.588235 0.321569 0.176471 1
0.588235 0.321569 0.176471 1
0.588235 0.321569 0.176471 1
0.588235 0.321569 0.176471 1
0.588235 0.321569 0.176471 1
0.588235 0.321569 0.176471 1
0.588235 0.321569 0.176471 1
0.588235 0.321569 0.176471 1
0.588235 0.321569 0.176471 1
0.588235 0.321569 0.176471 1
0.588235 0.321569 0.176471 1
0.588235 0.321569 0.176471 1
0.588235 0.321569 0.176471 1
0.588235 0.321569 0.176471 1
0.588235 0.321569 0.176471 1
0.588235 0.321569 0.176471 1
0.588235 0.321569 0.176471 1
0.588235 0.321569 0.176471 1
0.588235 0.321569 0.176471 1
0.588235 0.321569 0.176471 1
0.588235 0.321569 0.176471 1
0.588235 0.321569 0.176471 1
0.588235 0.321569 0.176471 1
0.588235 0.321569 0.176471 1
0.588235 0.321569 0.176471 1
0.588235 0.321569 0.176471 1
0.588235 0.321569 0.176471 1
0.588235 0.321569 0.176471 1
0.588235 0.321569 0.176471 1
0.588235 0.321569 0.176471 1
0.588235 0.321569 0.176471 1
0.588235 0.321569 0.176471 1
0.588235 0.321569 0.176471 1
0.588235 0.321569 0.176471 1
0.588235 0.321569 0.176471 1
0.588235 0.321569 0.176471 1
0.588235 0.321569 0.176471 1
0.588235 0.321569 0.176471 1
0.588235 0.321569 0.176471 1
0.588235 0.321569 0.176471 1
0.588235 0.321569 0.176471 1
0.588235 0.321569 0.176471 1
0.588235 0.321569 0.176471 1
0.588235 0.321569 0.176471 1
0.588235 0.321569 0.176471 1
0.588235 0.321569 0.176471 1
0.588235 0.321569 0.176471 1
0.588235 0.321569 0.176471 1
0.588235 0.321569 0.176471 1
0.588235 0.321569 0.176471 1
0.588235 0.321569 0.176471 1
0.588235 0.321569 0.176471 1
0.588235 0.321569 0.176471 1
0.588235 0.321569 0.176471 1
0.588235 0.321569 0.176471 1
0.588235 0.321569 0.176471 1
0.588235 0.321569 0.176471 1
0.588235 0.321569 0.176471 1
0.588235 0.321569 0.176471 1
0.588235 0.321569 0.176471 1
0.588235 0.321569 0.176471 1
0.588235 0.321569 0.176471 1
0.588235 0.321569 0.176471 1
0.588235 0.321569 0.176471 1
0.588235 0.321569 0.176471 1
0.588235 0.321569 0.176471 1
0.588235 0.321569 0.176471 1
0.588235 0.321569 0.176471 1
0.588235 0.321569 0.176471 1
0.588235 0.321569 0.176471 1
0.588235 0.321569 0.176471 1
0.588235 0.321569 0.176471 1
0.588235 0.321569 0.176471 1
0.588235 0.321569 0.176471 1
0.588235 0.321569 0.176471 1
0.588235 0.321569 0.176471 1
0.588235 0.321569 0.176471 1
0.588235 0.321569 0.176471 1
0.588235 0.321569 0.176471 1
0.588235 0.321569 0.176471 1
0.588235 0.321569 0.176471 1
0.588235 0.321569 0.176471 1
0.588235 0.321569 0.176471 1
0.588235 0.321569 0.176471 1
0.588235 0.321569 0.176471 1
0.588235 0.321569 0.176471 1
0.588235 0.321569 0.176471 1
0.588235 0.321569 0.176471 1
0.588235 0.321569 0.176471 1
0.588235 0.321569 0.176471 1
0.588235 0.321569 0.176471 1
0.588235 0.321569 0.176471 1
0.588235 0.321569 0.176471 1
0.588235 0.321569 0.176471 1
0.588235 0.321569 0.176471 1
0.588235 0.321569 0.176471 1
0.588235 0.321569 0.176471 1
0.588235 0.321569 0.176471 1
0.588235 0.321569 0.176471 1
0.588235 0.321569 0.176471 1
0.588235 0.321569 0.176471 1
0.588235 0.321569 0.176471 1
0.588235 0.321569 0.176471 1
0.588235 0.321569 0.176471 1
0.588235 0.321569 0.176471 1
0.588235 0.321569 0.176471 1
0.588235 0.321569 0.176471 1
0.588235 0.321569 0.176471 1
0.588235 0.321569 0.176471 1
0.588235 0.321569 0.176471 1
0.588235 0.321569 0.176471 1
0.588235 0.321569 0.176471 1
0.588235 0.321569 0.176471 1
0.588235 0.321569 0.176471 1
0.588235 0.321569 0.176471 1
0.588235 0.321569 0.176471 1
0.588235 0.321569 0.176471 1
0.588235 0.321569 0.176471 1
0.588235 0.321569 0.176471 1
0.588235 0.321569 0.176471 1
0.588235 0.321569 0.176471 1
0.588235 0.321569 0.176471 1
0.588235 0.321569 0.176471 1
0.588235 0.321569 0.176471 1
0.588235 0.321569 0.176471 1
0.588235 0.321569 0.176471 1
0.588235 0.321569 0.176471 1
0.588235 0.321569 0.176471 1
0.588235 0.321569 0.176471 1
0.588235 0.321569 0.176471 1
0.588235 0.321569 0.176471 1
0.588235 0.321569 0.176471 1
0.588235 0.321569 0.176471 1
0.588235 0.321569 0.176471 1
0.588235 0.321569 0.176471 1
0.588235 0.321569 0.176471 1
0.588235 0.321569 0.176471 1
0.588235 0.321569 0.176471 1
0.588235 0.321569 0.176471 1
0.588235 0.321569 0.176471 1
0.588235 0.321569 0.176471 1
0.588235 0.321569 0.176471 1
0.588235 0.321569 0.176471 1
0.588235 0.321569 0.176471 1
0.588235 0.321569 0.176471 1
0.588235 0.321569 0.176471 1
0.588235 0.321569 0.176471 1
0.588235 0.321569 0.176471 1
0.588235 0.321569 0.176471 1
0.588235 0.321569 0.176471 1
0.588235 0.321569 0.176471 1
0.588235 0.321569 0.176471 1
0.588235 0.321569 0.176471 1
0.588235 0.321569 0.176471 1
0.588235 0.321569 0.176471 1
0.588235 0.321569 0.176471 1
0.588235 0.321569 0.176471 1
0.588235 0.321569 0.176471 1
0.588235 0.321569 0.176471 1
0.588235 0.321569 0.176471 1
0.588235 0.321569 0.176471 1
0.588235 0.321569 0.176471 1
0.588235 0.321569 0.176471 1
0.588235 0.321569 0.176471 1
0.588235 0.321569 0.176471 1
0.588235 0.321569 0.176471 1
0.588235 0.321569 0.176471 1
0.588235 0.321569 0.176471 1
0.588235 0.321569 0.176471 1
0.588235 0.321569 0.176471 1
0.588235 0.321569 0.176471 1
0.588235 0.321569 0.176471 1
0.588235 0.321569 0.176471 1
0.588235 0.321569 0.176471 1
0.588235 0.321569 0.176471 1
0.588235 0.321569 0.176471 1
0.588235 0.321569 0.176471 1
0.588235 0.321569 0.176471 1
0.588235 0.321569 0.176471 1
0.588235 0.321569 0.176471 1
0.588235 0.321569 0.176471 1
0.588235 0.321569 0.176471 1
0.588235 0.321569 0.176471 1
0.588235 0.321569 0.176471 1
0.588235 0.321569 0.176471 1
0.588235 0.321569 0.176471 1
0.588235 0.321569 0.176471 1
0.588235 0.321569 0.176471 1
0.588235 0.321569 0.176471 1
0.588235 0.321569 0.176471 1
0.588235 0.321569 0.176471 1
0.588235 0.321569 0.176471 1
0.588235 0.321569 0.176471 1
0.588235 0.321569 0.176471 1
0.588235 0.321569 0.176471 1
0.588235 0.321569 0.176471 1
0.588235 0.321569 0.176471 1
0.588235 0.321569 0.176471 1
0.588235 0.321569 0.176471 1
0.588235 0.321569 0.176471 1
0.588235 0.321569 0.176471 1
0.588235 0.321569 0.176471 1
0.588235 0.321569 0.176471 1
0.588235 0.321569 0.176471 1
0.588235 0.321569 0.176471 1
0.588235 0.321569 0.176471 1
0.588235 0.321569 0.176471 1
0.588235 0.321569 0.176471 1
0.588235 0.321569 0.176471 1
0.588235 0.321569 0.176471 1
0.588235 0.321569 0.176471 1
0.588235 0.321569 0.176471 1
0.588235 0.321569 0.176471 1
0.588235 0.321569 0.176471 1
0.588235 0.321569 0.176471 1
0.588235 0.321569 0.176471 1
0.588235 0.321569 0.176471 1
0.588235 0.321569 0.176471 1
0.588235 0.321569 0.176471 1
0.588235 0.321569 0.176471 1
0.588235 0.321569 0.176471 1
0.588235 0.321569 0.176471 1
0.588235 0.321569 0.176471 1
0.588235 0.321569 0.176471 1
0.588235 0.321569 0.176471 1
0.588235 0.321569 0.176471 1
0.588235 0.321569 0.176471 1
0.588235 0.321569 0.176471 1
0.588235 0.321569 0.176471 1
0.588235 0.321569 0.176471 1
0.588235 0.321569 0.176471 1
0.588235 0.321569 0.176471 1
0.588235 0.321569 0.176471 1
0.588235 0.321569 0.176471 1
0.588235 0.321569 0.176471 1
0.588235 0.321569 0.176471 1
0.588235 0.321569 0.176471 1
0.588235 0.321569 0.176471 1
0.588235 0.321569 0.176471 1
0.588235 0.321569 0.176471 1
0.588235 0.321569 0.176471 1
0.588235 0.321569 0.176471 1
0.588235 0.321569 0.176471 1
0.588235 0.321569 0.176471 1
0.588235 0.321569 0.176471 1
0.588235 0.321569 0.176471 1
0.588235 0.321569 0.176471 1
0.588235 0.321569 0.176471 1
0.588235 0.321569 0.176471 1
0.588235 0.321569 0.176471 1