# vtk DataFile Version 3.0
Gocad VSet to VTK
ASCII
DATASET POLYDATA
POINTS 1 float
21567164.000 4549407.500 408.294

VERTICES 1 2
1 0

POINT_DATA 1
COLOR_SCALARS GocadColor 4
0 0 1 1

