# vtk DataFile Version 3.0
Gocad Well to VTK
ASCII
DATASET POLYDATA
POINTS 2 float
21546300.000 4545071.000 222.059
21546300.000 4545071.000 148.729

LINES 1 3
2 0 1

POINT_DATA 2
COLOR_SCALARS GocadColor 4
0 1 1 1
0 1 1 1

