# vtk DataFile Version 3.0
Gocad Well to VTK
ASCII
DATASET POLYDATA
POINTS 2 float
21546166.000 4545219.500 220.970
21546166.000 4545219.500 155.670

LINES 1 3
2 0 1

POINT_DATA 2
COLOR_SCALARS GocadColor 4
0 1 1 1
0 1 1 1

