# vtk DataFile Version 3.0
Gocad Well to VTK
ASCII
DATASET POLYDATA
POINTS 2 float
21559146.000 4560396.000 223.000
21559146.000 4560396.000 -2077.000

LINES 1 3
2 0 1

POINT_DATA 2
COLOR_SCALARS GocadColor 4
1 1 0 1
1 1 0 1

