# vtk DataFile Version 3.0
Gocad Well to VTK
ASCII
DATASET POLYDATA
POINTS 2 float
21559844.000 4560558.000 186.000
21559844.000 4560558.000 -2114.000

LINES 1 3
2 0 1

POINT_DATA 2
COLOR_SCALARS GocadColor 4
0 1 1 1
0 1 1 1

